Protein in water
12451
    1VAL      N    1   0.395   3.626   2.642  0.2928 -0.3131 -0.4637
    1VAL     H1    2   0.436   3.704   2.693 -1.8498  0.0114  0.9225
    1VAL     H2    3   0.430   3.552   2.700  0.3561 -0.4099 -0.6258
    1VAL     H3    4   0.431   3.619   2.548  0.0276 -2.4269 -0.4414
    1VAL     CA    5   0.246   3.648   2.634  0.6676 -0.3202 -0.2931
    1VAL     HA    6   0.223   3.733   2.570  1.1801 -0.8718 -1.2274
    1VAL     CB    7   0.168   3.520   2.593  0.3508 -0.1720  0.4308
    1VAL     HB    8   0.068   3.513   2.637  0.0360 -1.4746 -0.4144
    1VAL    CG1    9   0.151   3.513   2.440 -0.6362 -0.4412 -0.4605
    1VAL   HG11   10   0.248   3.507   2.390  1.2713  2.3556  2.5114
    1VAL   HG12   11   0.092   3.427   2.409 -2.6597  1.0062 -0.8671
    1VAL   HG13   12   0.085   3.597   2.417  1.0000  2.0698  3.1518
    1VAL    CG2   13   0.229   3.382   2.616 -0.2403  0.9137 -0.8030
    1VAL   HG21   14   0.326   3.368   2.567  1.6823  1.8808  2.3527
    1VAL   HG22   15   0.232   3.370   2.725 -3.2713 -0.3772 -0.7717
    1VAL   HG23   16   0.156   3.308   2.586 -0.0668 -0.6982  2.3103
    1VAL      C   17   0.186   3.692   2.773 -0.0824  0.0543 -0.2013
    1VAL      O   18   0.217   3.618   2.866  0.2091 -0.0263 -0.3092
    2PRO      N   19   0.102   3.801   2.788  0.2628  0.0332  0.1612
    2PRO     CD   20   0.063   3.852   2.912  0.6557  0.3327 -0.2469
    2PRO    HD1   21   0.116   3.809   2.996  1.8245 -1.3454 -1.7541
    2PRO    HD2   22  -0.041   3.826   2.928  0.7121  0.3996  0.2318
    2PRO     CG   23   0.069   4.002   2.903  0.4483  0.3566  0.3407
    2PRO    HG1   24   0.172   4.033   2.919  0.6253 -0.3764  0.6415
    2PRO    HG2   25   0.005   4.055   2.974  0.6668  0.9241  0.1151
    2PRO     CB   26   0.040   4.039   2.759  0.0135 -0.1727  0.1361
    2PRO    HB1   27   0.090   4.134   2.742  0.5319 -0.1857  1.4795
    2PRO    HB2   28  -0.063   4.075   2.753  0.2041  0.2733 -0.6366
    2PRO     CA   29   0.084   3.910   2.685  0.1649  0.1501 -0.1202
    2PRO     HA   30   0.180   3.940   2.644 -0.8525  1.6781 -1.5085
    2PRO      C   31  -0.007   3.878   2.565 -0.1501  0.8005 -0.5728
    2PRO      O   32  -0.068   3.772   2.564 -0.2428 -0.8895  0.2216
    3TYR      N   33  -0.019   3.960   2.467 -0.3500 -0.3160 -0.3136
    3TYR      H   34   0.040   4.042   2.469  1.1055 -1.3448  0.2286
    3TYR     CA   35  -0.121   3.958   2.362  0.1410 -0.4035 -0.0167
    3TYR     HA   36  -0.204   3.904   2.406 -0.4025 -0.5804 -1.2150
    3TYR     CB   37  -0.157   4.106   2.329  0.3439 -0.0564 -1.2080
    3TYR    HB1   38  -0.179   4.159   2.422 -1.0721  0.5377 -1.8509
    3TYR    HB2   39  -0.255   4.106   2.280 -1.3440 -0.4588  1.9179
    3TYR     CG   40  -0.061   4.197   2.251 -0.0448 -0.0126  0.0109
    3TYR    CD1   41  -0.007   4.310   2.310 -0.9481 -0.3411 -0.1379
    3TYR    HD1   42  -0.036   4.343   2.408  3.9680  2.3254  0.6944
    3TYR    CE1   43   0.094   4.384   2.240  0.0011  0.4641 -0.4864
    3TYR    HE1   44   0.137   4.474   2.283  2.1223 -0.1701 -1.1877
    3TYR     CZ   45   0.120   4.356   2.105 -0.1805  0.5476  0.8447
    3TYR     OH   46   0.213   4.429   2.037  0.2071 -0.3115 -0.1859
    3TYR     HH   47   0.236   4.387   1.954 -0.0855  1.4935 -1.2212
    3TYR    CE2   48   0.060   4.245   2.047  0.0071 -0.3025  0.0835
    3TYR    HE2   49   0.087   4.229   1.944  0.0209  3.3177 -0.6236
    3TYR    CD2   50  -0.021   4.160   2.123  0.4228  0.0280 -0.2063
    3TYR    HD2   51  -0.080   4.085   2.072  0.1805  1.1244 -1.6078
    3TYR      C   52  -0.076   3.879   2.237 -0.3641 -0.4391  0.2003
    3TYR      O   53  -0.147   3.852   2.144 -0.1264 -0.4407 -0.7686
    4LEU      N   54   0.058   3.855   2.220  0.1192 -0.7192  0.0108
    4LEU      H   55   0.128   3.866   2.291 -0.6737 -3.1871  1.2919
    4LEU     CA   56   0.119   3.789   2.102 -0.1171 -0.6749 -1.4166
    4LEU     HA   57   0.044   3.722   2.057  0.5930 -1.3523 -1.6167
    4LEU     CB   58   0.155   3.898   1.999  0.1996 -0.3915  0.5840
    4LEU    HB1   59   0.216   3.975   2.048  2.8885 -0.9512 -1.6042
    4LEU    HB2   60   0.064   3.946   1.962 -2.3676 -2.7980  3.2753
    4LEU     CG   61   0.235   3.852   1.875 -0.7393 -0.0514 -0.2661
    4LEU     HG   62   0.322   3.796   1.910  0.4407  0.4655 -2.1859
    4LEU    CD1   63   0.293   3.976   1.808  0.3237 -0.2923  0.1981
    4LEU   HD11   64   0.334   3.942   1.713  1.2237 -0.8359  0.7654
    4LEU   HD12   65   0.212   4.046   1.789 -2.4454 -3.2406  0.4151
    4LEU   HD13   66   0.379   4.010   1.866  0.5716 -0.9664  0.2362
    4LEU    CD2   67   0.156   3.762   1.773  0.4254 -0.7132 -0.6126
    4LEU   HD21   68   0.096   3.695   1.835  1.3430 -0.6069  0.4169
    4LEU   HD22   69   0.090   3.826   1.714  1.9058  2.1277  0.6310
    4LEU   HD23   70   0.224   3.709   1.706  0.2255 -0.7692 -0.7731
    4LEU      C   71   0.238   3.708   2.141  0.6078  0.3982 -0.2067
    4LEU    OC1   72   0.312   3.759   2.231  0.1415 -0.2196 -0.1306
    4LEU    OC2   73   0.256   3.596   2.092 -0.2742  0.4215  0.1611
    5SOL     OW   74   4.751   3.781   1.368 -0.5114  0.2687 -0.4627
    5SOL    HW1   75   4.772   3.792   1.275  1.2340  0.1369 -0.1068
    5SOL    HW2   76   4.656   3.791   1.372 -0.6102  0.3354 -2.2511
    6SOL     OW   77   1.102   0.860   2.253  0.1023  0.1971  0.2938
    6SOL    HW1   78   1.015   0.900   2.261  0.2244  0.4979  0.1251
    6SOL    HW2   79   1.119   0.823   2.340 -1.2079 -1.9899 -0.2785
    7SOL     OW   80   2.281   0.370   4.226  0.0047  0.5275 -0.3944
    7SOL    HW1   81   2.272   0.327   4.310 -0.9995  1.5988  0.0847
    7SOL    HW2   82   2.221   0.323   4.168 -0.3088  0.6224 -0.1488
    8SOL     OW   83   0.530   4.248   1.967 -0.0105 -0.6281 -0.2902
    8SOL    HW1   84   0.480   4.222   1.890 -0.1816  0.6796 -0.6391
    8SOL    HW2   85   0.617   4.266   1.934 -0.0205 -0.2990 -0.1400
    9SOL     OW   86   4.559   1.577   2.238 -0.5203 -0.0572  0.4396
    9SOL    HW1   87   4.491   1.642   2.224  0.7283  1.4697  1.1868
    9SOL    HW2   88   4.527   1.526   2.313 -2.0063 -1.0850 -0.8162
   10SOL     OW   89   4.318   0.351   3.222 -0.0659 -0.9259 -0.1450
   10SOL    HW1   90   4.240   0.379   3.270  0.2065 -2.3433  1.2185
   10SOL    HW2   91   4.299   0.370   3.131 -1.0341  0.9293  0.3943
   11SOL     OW   92   2.253   2.221   2.633 -0.8892  0.2644  0.0909
   11SOL    HW1   93   2.194   2.161   2.679 -0.2812  0.0913  0.6462
   11SOL    HW2   94   2.263   2.295   2.692 -2.5831  1.5124 -1.0762
   12SOL     OW   95   2.198   4.644   0.895 -0.1841  0.2553  0.2305
   12SOL    HW1   96   2.134   4.574   0.880  0.6741 -0.2799 -0.9894
   12SOL    HW2   97   2.252   4.611   0.967  2.0974 -1.7462 -2.2167
   13SOL     OW   98   0.668   3.252   1.380  0.5684  0.4316 -0.3534
   13SOL    HW1   99   0.718   3.327   1.346  0.6276  0.0843 -1.0480
   13SOL    HW2  100   0.734   3.193   1.416  0.3714  1.9425  2.8230
   14SOL     OW  101   3.006   0.242   0.546  0.5971  0.1541 -0.0274
   14SOL    HW1  102   3.042   0.327   0.570 -0.0529  0.2541  0.6289
   14SOL    HW2  103   2.912   0.250   0.562  0.7697 -1.3538  2.1352
   15SOL     OW  104   4.738   5.150   0.198 -0.1374  0.1414  0.0459
   15SOL    HW1  105   4.692   5.076   0.158  1.4212 -2.0004  1.9177
   15SOL    HW2  106   4.803   5.176   0.132  1.1922 -2.1285  0.3380
   16SOL     OW  107   2.685   2.628   1.960  0.0179 -0.0273 -0.0862
   16SOL    HW1  108   2.593   2.648   1.943  0.2336  0.5272 -0.6375
   16SOL    HW2  109   2.733   2.696   1.914  0.6685  0.8558  1.8155
   17SOL     OW  110   3.640   3.112   1.309 -0.2394 -0.4000  0.2565
   17SOL    HW1  111   3.729   3.103   1.343 -0.8608 -2.2124  1.5118
   17SOL    HW2  112   3.583   3.079   1.379 -1.8944  0.3296 -0.6750
   18SOL     OW  113   1.282   5.158   3.440  0.4041 -0.2669  0.3093
   18SOL    HW1  114   1.283   5.243   3.485  3.0918  0.7531 -1.3843
   18SOL    HW2  115   1.235   5.175   3.359 -1.6644 -1.2601  1.2405
   19SOL     OW  116   1.868   0.447   2.045  0.3589  0.5861  0.5592
   19SOL    HW1  117   1.873   0.495   2.128  2.6691  0.7197  0.4263
   19SOL    HW2  118   1.863   0.355   2.070 -1.2457  0.7297  0.8199
   20SOL     OW  119   2.759   4.303   0.930  0.0203  0.2324 -0.7691
   20SOL    HW1  120   2.755   4.230   0.868  0.3339 -0.2757 -0.2015
   20SOL    HW2  121   2.805   4.372   0.882  0.7581 -0.3524 -0.9252
   21SOL     OW  122   1.500   1.539   2.047  0.0550  0.6361  0.2849
   21SOL    HW1  123   1.552   1.475   2.096 -0.3404 -0.6897 -0.9545
   21SOL    HW2  124   1.551   1.620   2.052  2.0748 -0.5093 -0.5674
   22SOL     OW  125   2.353   2.515   0.810 -0.3216  0.2058  0.0302
   22SOL    HW1  126   2.402   2.442   0.771 -0.4724  0.3312 -0.4022
   22SOL    HW2  127   2.413   2.552   0.874 -1.4569 -2.5032  2.9358
   23SOL     OW  128   3.307   4.614   0.742 -0.1736 -0.3250 -0.0988
   23SOL    HW1  129   3.402   4.624   0.732  0.0245 -1.4588  0.5253
   23SOL    HW2  130   3.275   4.596   0.654 -0.0095  1.3909 -0.5465
   24SOL     OW  131   3.032   1.091   2.021  0.1202 -0.3461 -0.2958
   24SOL    HW1  132   3.078   1.172   2.043 -0.8879  0.3105 -0.5080
   24SOL    HW2  133   3.005   1.055   2.106 -0.0435 -0.0821 -0.2348
   25SOL     OW  134   3.033   0.541   3.099  0.0992 -0.3576  0.2146
   25SOL    HW1  135   2.978   0.618   3.111 -0.1262 -0.4729 -0.0767
   25SOL    HW2  136   3.115   0.576   3.062 -1.1353 -0.5617 -3.0213
   26SOL     OW  137   2.802   2.913   0.231  1.0913  0.1353 -0.1378
   26SOL    HW1  138   2.708   2.899   0.244  0.6865  1.9322 -0.8371
   26SOL    HW2  139   2.842   2.830   0.258 -0.7282 -0.8774 -0.3402
   27SOL     OW  140   3.066   4.699   0.872  0.3304 -0.1579 -0.1818
   27SOL    HW1  141   3.146   4.658   0.838  0.5273  1.0861 -1.3094
   27SOL    HW2  142   3.068   4.787   0.836 -1.4910 -0.0608 -0.1068
   28SOL     OW  143   2.635   0.047   0.472  0.3350  0.1478 -0.2723
   28SOL    HW1  144   2.573  -0.022   0.449  0.8677 -0.8228  1.0835
   28SOL    HW2  145   2.720   0.003   0.474  0.4597  0.3609  2.3847
   29SOL     OW  146   4.406   4.288   3.068 -0.3201  0.0034  0.2186
   29SOL    HW1  147   4.350   4.337   3.008  1.0575 -0.4325 -1.4837
   29SOL    HW2  148   4.465   4.238   3.012  1.2629 -0.1666  1.9124
   30SOL     OW  149   1.587   1.751   2.314  0.5356 -0.4623 -0.3857
   30SOL    HW1  150   1.636   1.773   2.235  0.3282  1.4184 -0.0234
   30SOL    HW2  151   1.501   1.792   2.302  0.7386  0.5003  1.1014
   31SOL     OW  152   1.124   0.208   3.037  0.6639 -0.1344  0.1925
   31SOL    HW1  153   1.077   0.159   3.104 -0.1423  1.0495  0.5270
   31SOL    HW2  154   1.177   0.143   2.992 -0.9603 -1.4438  0.1042
   32SOL     OW  155   3.788   2.755   4.155  0.4695  0.4044  0.1175
   32SOL    HW1  156   3.782   2.694   4.081  2.1919 -0.4924  0.6559
   32SOL    HW2  157   3.825   2.703   4.226 -0.9323  1.3030  1.5914
   33SOL     OW  158   0.702   1.277   2.378 -0.1950 -0.1440 -0.4595
   33SOL    HW1  159   0.693   1.350   2.317  1.5941 -0.0685 -0.6791
   33SOL    HW2  160   0.612   1.256   2.403 -0.9416  0.3273 -2.5138
   34SOL     OW  161   4.406   1.152   0.718  0.0803 -0.0196 -0.2611
   34SOL    HW1  162   4.470   1.197   0.664 -2.0177  1.1502 -1.9257
   34SOL    HW2  163   4.457   1.088   0.768  2.2416 -0.7429 -3.1420
   35SOL     OW  164   3.245   1.382   1.854  0.0978  0.1743 -0.4607
   35SOL    HW1  165   3.243   1.454   1.916 -1.2620 -0.0012 -0.2816
   35SOL    HW2  166   3.233   1.423   1.768  3.5323  0.6098 -0.8900
   36SOL     OW  167   0.106   4.758   1.502  0.5370  0.3510  0.3977
   36SOL    HW1  168   0.179   4.697   1.519 -0.2796 -1.0013 -0.6928
   36SOL    HW2  169   0.052   4.753   1.581 -0.7675 -2.2715 -0.5204
   37SOL     OW  170   2.744   0.848   3.442 -0.4560 -0.2735 -0.1924
   37SOL    HW1  171   2.674   0.896   3.487 -0.2751 -0.5428  0.3896
   37SOL    HW2  172   2.746   0.885   3.354 -0.2188  0.9175  0.2908
   38SOL     OW  173   1.072   4.198   0.584 -0.0429 -0.2055 -0.1055
   38SOL    HW1  174   1.064   4.103   0.599  2.2010 -0.2731  0.9681
   38SOL    HW2  175   1.136   4.205   0.513  0.4146  0.5181  0.3741
   39SOL     OW  176   0.965   3.754   3.592 -0.7494 -0.0760  0.3524
   39SOL    HW1  177   1.022   3.753   3.669 -0.2530  0.1030 -0.0081
   39SOL    HW2  178   0.903   3.824   3.610  0.6309  1.3893 -0.2843
   40SOL     OW  179   0.551   0.379   3.108  0.7907 -0.2662 -0.1687
   40SOL    HW1  180   0.613   0.416   3.045 -0.1060  0.8392 -0.4423
   40SOL    HW2  181   0.536   0.449   3.171 -0.7344 -0.2240 -0.5346
   41SOL     OW  182   0.970   4.052   3.337  0.3330 -0.0971  0.7252
   41SOL    HW1  183   0.896   4.066   3.278  0.2531  0.4759  0.9603
   41SOL    HW2  184   0.983   3.957   3.336  0.0155 -0.1394  0.1742
   42SOL     OW  185   1.808   1.564   0.621  0.3546  0.0033 -0.2359
   42SOL    HW1  186   1.735   1.501   0.615 -0.7451  1.2432 -0.3156
   42SOL    HW2  187   1.836   1.559   0.712  0.9079 -1.2514 -0.4467
   43SOL     OW  188   3.055   0.106   2.931  0.9109  0.5934  0.2601
   43SOL    HW1  189   3.111   0.157   2.989  2.7732 -0.5717 -0.4278
   43SOL    HW2  190   3.107   0.028   2.909 -1.0927 -0.7095 -0.1851
   44SOL     OW  191   2.723   3.014   3.241  0.1461 -0.0823  0.3078
   44SOL    HW1  192   2.696   3.101   3.272 -2.8987 -1.0166  0.6988
   44SOL    HW2  193   2.715   2.958   3.319  1.5593 -0.8455 -0.0607
   45SOL     OW  194   3.924   4.776   1.161  0.7158  0.4052 -0.5841
   45SOL    HW1  195   3.956   4.845   1.219  0.6514 -0.8942  1.0788
   45SOL    HW2  196   3.835   4.758   1.191  0.7429 -0.4147 -0.9536
   46SOL     OW  197   4.699   2.315   0.453  0.5064 -0.2227 -0.1176
   46SOL    HW1  198   4.622   2.303   0.397  0.7965 -0.9434 -0.3760
   46SOL    HW2  199   4.741   2.393   0.418 -1.7010  2.0678  1.9276
   47SOL     OW  200   1.364   4.210   2.767 -0.0776  0.0118  0.0997
   47SOL    HW1  201   1.447   4.234   2.810 -1.7497  0.4262  3.4064
   47SOL    HW2  202   1.315   4.292   2.763 -0.9112 -0.5072 -0.4500
   48SOL     OW  203   3.690   3.055   4.065 -0.5696  0.1835 -0.1638
   48SOL    HW1  204   3.679   2.969   4.023 -0.4208  0.1920 -0.2224
   48SOL    HW2  205   3.753   3.038   4.135 -2.0452 -0.1911  1.1365
   49SOL     OW  206   1.256   3.327   4.030 -0.4668 -0.2451 -0.0845
   49SOL    HW1  207   1.302   3.364   3.954 -1.3449  0.0401 -0.4971
   49SOL    HW2  208   1.196   3.397   4.057 -0.5138 -0.5334  0.5630
   50SOL     OW  209   2.542   2.814   0.299  0.0964 -0.1102 -0.2170
   50SOL    HW1  210   2.462   2.856   0.266  0.4744  1.5064  0.8497
   50SOL    HW2  211   2.515   2.773   0.381  0.2599  0.0568 -0.0799
   51SOL     OW  212   3.334   2.179   3.588  0.2464 -0.2049 -0.1938
   51SOL    HW1  213   3.368   2.122   3.657 -0.3211 -2.3284 -1.5597
   51SOL    HW2  214   3.254   2.216   3.625  0.6168 -0.3086  0.7376
   52SOL     OW  215   3.830   4.986   1.544  0.4819  0.3303  0.2713
   52SOL    HW1  216   3.772   4.911   1.556  0.2776  0.5131  0.4348
   52SOL    HW2  217   3.856   5.011   1.632  0.2371  0.6922  0.2451
   53SOL     OW  218   1.017   4.767   1.441  0.1400  0.1943  0.1101
   53SOL    HW1  219   1.048   4.842   1.491 -1.7486  0.2696  1.2618
   53SOL    HW2  220   0.959   4.805   1.375 -1.3099 -0.2688  1.0924
   54SOL     OW  221   1.477   3.723   2.775  0.0105  0.3333 -0.2368
   54SOL    HW1  222   1.453   3.772   2.854 -1.2659  0.9387 -0.9614
   54SOL    HW2  223   1.429   3.766   2.705 -0.1677 -1.1814 -1.0963
   55SOL     OW  224   1.474   0.805   3.458 -0.2220 -0.0840 -0.1457
   55SOL    HW1  225   1.433   0.785   3.542  1.2792 -2.3609  0.1336
   55SOL    HW2  226   1.403   0.800   3.394 -0.8122 -1.6279  0.5992
   56SOL     OW  227   5.392   4.789   0.588 -0.0204 -0.4680  0.1541
   56SOL    HW1  228   5.482   4.819   0.602  0.3936 -0.9282 -1.3074
   56SOL    HW2  229   5.342   4.869   0.571  0.0771 -0.2015  1.0875
   57SOL     OW  230   5.460   3.589   4.201  0.3250  0.8586 -0.5555
   57SOL    HW1  231   5.434   3.623   4.115  0.7823  1.5664 -0.4170
   57SOL    HW2  232   5.553   3.569   4.191  0.0523 -0.4748 -0.6639
   58SOL     OW  233   4.579   2.714   3.782 -0.5923  0.1482 -0.0604
   58SOL    HW1  234   4.565   2.768   3.860  1.0807  0.7840 -0.1640
   58SOL    HW2  235   4.531   2.758   3.713  1.8246  2.3805 -0.4602
   59SOL     OW  236   2.922   1.938   3.699 -0.4448 -0.4354  0.6316
   59SOL    HW1  237   2.866   1.873   3.742  0.5896 -1.3147  0.6678
   59SOL    HW2  238   3.010   1.920   3.732 -0.3265  2.0095  1.8987
   60SOL     OW  239   0.773   4.216   1.889 -0.0038  0.3605 -0.7352
   60SOL    HW1  240   0.820   4.175   1.816 -0.3618 -2.5212  0.5319
   60SOL    HW2  241   0.835   4.281   1.922  2.0971 -1.4995 -0.7573
   61SOL     OW  242   1.678   4.536   0.321 -0.1524  0.1075 -0.0591
   61SOL    HW1  243   1.636   4.515   0.237  0.4101 -0.7483 -0.1358
   61SOL    HW2  244   1.609   4.524   0.386 -0.5046  0.4535 -0.3627
   62SOL     OW  245   3.159   1.339   2.189 -0.1885  0.1336  0.0625
   62SOL    HW1  246   3.084   1.393   2.213 -0.3276  1.1337 -2.3647
   62SOL    HW2  247   3.229   1.401   2.167  0.5748 -0.7264 -0.0544
   63SOL     OW  248   3.203   4.512   2.701  0.4872 -0.8104 -0.2848
   63SOL    HW1  249   3.179   4.496   2.609  0.4822  0.1159 -0.4550
   63SOL    HW2  250   3.194   4.607   2.712  0.9489 -0.8529  0.5488
   64SOL     OW  251   3.858   3.088   1.772  0.0614  0.4737  0.1252
   64SOL    HW1  252   3.813   3.116   1.853 -0.4474 -1.1191  0.4190
   64SOL    HW2  253   3.916   3.017   1.800 -0.6029 -0.5432 -1.0096
   65SOL     OW  254   4.356   2.492   2.042  0.6736 -0.3448 -0.3503
   65SOL    HW1  255   4.437   2.507   1.993  1.1081 -0.1763  0.4029
   65SOL    HW2  256   4.307   2.430   1.989  1.0029  0.0476 -1.1386
   66SOL     OW  257   2.724   0.044   1.359  0.4652  0.3845  0.0116
   66SOL    HW1  258   2.736  -0.043   1.396  1.2917  0.8302  0.8210
   66SOL    HW2  259   2.687   0.028   1.272 -0.2088 -0.7323  0.4786
   67SOL     OW  260   0.071   0.975   4.208 -0.2393  0.1438  0.4836
   67SOL    HW1  261   0.081   0.891   4.163 -0.4082 -0.2305  1.1368
   67SOL    HW2  262   0.017   1.027   4.149  0.0713 -0.1184 -0.0398
   68SOL     OW  263   4.865   4.292   4.313 -0.2081 -0.0306  0.4504
   68SOL    HW1  264   4.911   4.224   4.263  0.0196 -0.7665  1.6234
   68SOL    HW2  265   4.783   4.306   4.264  0.1284 -0.5291 -0.2792
   69SOL     OW  266   4.513   2.827   2.042  0.1992 -0.0268  0.0369
   69SOL    HW1  267   4.566   2.906   2.056 -2.0681  1.4789  0.6197
   69SOL    HW2  268   4.505   2.821   1.946  0.8153  0.1371 -0.0289
   70SOL     OW  269   5.135   0.830   0.640  0.0225  0.2478  0.2088
   70SOL    HW1  270   5.151   0.921   0.663 -0.4691  0.2587  0.5194
   70SOL    HW2  271   5.052   0.831   0.592 -1.9790 -0.4231  3.3249
   71SOL     OW  272   1.305   1.512   2.386 -0.5662 -0.3196  0.6099
   71SOL    HW1  273   1.392   1.552   2.380 -0.5784 -0.4945 -1.6992
   71SOL    HW2  274   1.244   1.586   2.389 -0.4849 -0.0927 -1.6595
   72SOL     OW  275   0.850   0.007   4.178 -0.0818 -0.2466  0.1010
   72SOL    HW1  276   0.923   0.008   4.239 -1.9910  0.4732  2.4995
   72SOL    HW2  277   0.884   0.050   4.099  1.7069  1.2094  1.5818
   73SOL     OW  278   1.401   0.093   1.734  0.3353 -0.6400 -0.2049
   73SOL    HW1  279   1.441   0.103   1.648 -0.9513 -2.0531 -1.0289
   73SOL    HW2  280   1.411   0.001   1.755 -0.1346 -0.4853  0.7715
   74SOL     OW  281   1.408   1.253   2.502 -0.3841 -0.6427 -0.6612
   74SOL    HW1  282   1.345   1.221   2.566  0.6788 -0.4617  0.5042
   74SOL    HW2  283   1.364   1.327   2.460 -0.8850 -0.4130  0.2481
   75SOL     OW  284   1.226   4.788   4.265  0.0777  0.2746 -0.0525
   75SOL    HW1  285   1.143   4.804   4.309 -0.3923 -0.2144 -0.7623
   75SOL    HW2  286   1.215   4.824   4.177  1.0121  1.2336  0.1839
   76SOL     OW  287   0.540   0.434   3.766 -0.7728  0.3418 -0.3108
   76SOL    HW1  288   0.479   0.366   3.737 -2.4532  0.5817  2.3125
   76SOL    HW2  289   0.530   0.436   3.861  0.8686  2.7666 -0.0971
   77SOL     OW  290   5.225   4.429   2.890 -0.2124  0.2768 -0.0876
   77SOL    HW1  291   5.233   4.435   2.794 -2.1685  1.8465 -0.2206
   77SOL    HW2  292   5.131   4.426   2.906  0.0612  0.5618  1.8320
   78SOL     OW  293   2.634   2.625   0.102  0.1014  0.2339 -0.1001
   78SOL    HW1  294   2.596   2.702   0.146  2.5495  2.0431 -0.9602
   78SOL    HW2  295   2.590   2.623   0.017 -1.2715 -0.4599  0.5921
   79SOL     OW  296   3.268   5.102   3.579 -0.2660 -0.0235  0.1092
   79SOL    HW1  297   3.180   5.070   3.557  0.0346 -0.4637 -0.4665
   79SOL    HW2  298   3.262   5.124   3.672 -0.5926 -1.4181  0.4370
   80SOL     OW  299   0.917   2.053   0.173 -0.0536  0.4127 -0.1915
   80SOL    HW1  300   0.976   1.996   0.223  0.4143  1.3298  0.3271
   80SOL    HW2  301   0.892   2.122   0.234 -1.6324  0.0974 -0.4150
   81SOL     OW  302   0.858   0.911   2.375 -0.3939 -0.0519  0.1840
   81SOL    HW1  303   0.807   0.955   2.308  0.0743 -0.5719 -0.5309
   81SOL    HW2  304   0.841   0.818   2.361  1.8451 -0.3521 -1.0275
   82SOL     OW  305   4.486   4.918   3.219  0.2357  0.4249  0.0286
   82SOL    HW1  306   4.415   4.976   3.190  0.7167  0.2614 -1.5362
   82SOL    HW2  307   4.449   4.830   3.213  0.7055  0.2969 -1.2979
   83SOL     OW  308   3.620   2.157   2.215 -0.6203 -0.1590  0.3947
   83SOL    HW1  309   3.597   2.189   2.302 -0.6214  2.2668 -0.4236
   83SOL    HW2  310   3.682   2.221   2.181 -1.5790 -0.3033 -1.8670
   84SOL     OW  311   0.199   5.104   1.223 -0.2454 -0.0583 -0.0633
   84SOL    HW1  312   0.210   5.084   1.316  1.7301 -0.0336 -0.2556
   84SOL    HW2  313   0.157   5.190   1.221 -1.0150 -0.3997  0.7884
   85SOL     OW  314   4.289   1.558   2.703 -0.4765 -0.2888 -0.1495
   85SOL    HW1  315   4.266   1.649   2.686  0.6979  0.1725  0.5603
   85SOL    HW2  316   4.207   1.510   2.696 -1.1438  0.8507 -0.3639
   86SOL     OW  317   3.819   4.092   3.527 -0.1134  0.0158  0.0225
   86SOL    HW1  318   3.817   4.160   3.594  0.0768 -0.1878  0.2373
   86SOL    HW2  319   3.855   4.016   3.572  1.4362  0.2996 -0.6947
   87SOL     OW  320   0.425   0.674   2.508  0.2473  0.0908 -0.3848
   87SOL    HW1  321   0.365   0.669   2.582 -0.2348  1.0721 -0.6900
   87SOL    HW2  322   0.444   0.583   2.485 -0.0681 -0.2191  0.5561
   88SOL     OW  323   0.299   1.857   3.693 -0.8036 -0.0880  0.3574
   88SOL    HW1  324   0.339   1.869   3.607  1.3559 -0.6180  1.2259
   88SOL    HW2  325   0.247   1.777   3.685  0.1736 -0.6851 -0.2096
   89SOL     OW  326   4.669   3.049   1.152 -0.3540  0.1534 -0.0260
   89SOL    HW1  327   4.704   2.962   1.134 -2.4575 -1.3360  2.3957
   89SOL    HW2  328   4.690   3.064   1.244 -1.2934  1.5618 -0.0158
   90SOL     OW  329   1.042   0.022   4.368  0.2699  0.1255  0.6123
   90SOL    HW1  330   1.129   0.024   4.406  0.0740 -0.4530  1.1047
   90SOL    HW2  331   0.984   0.049   4.439 -0.0142 -0.0790  0.4603
   91SOL     OW  332   1.150   5.141   0.614  0.2471 -0.2168  0.2434
   91SOL    HW1  333   1.129   5.055   0.650  1.1329 -0.4463  0.2445
   91SOL    HW2  334   1.142   5.131   0.519 -0.8847  0.0525  0.3001
   92SOL     OW  335   0.740   1.273   2.865  0.3167 -0.2208 -0.2477
   92SOL    HW1  336   0.790   1.258   2.785  1.1450 -0.7279  0.3532
   92SOL    HW2  337   0.694   1.356   2.849 -1.7170 -1.5924 -2.3329
   93SOL     OW  338   0.315   4.876   3.752 -0.0579  0.4626 -0.3462
   93SOL    HW1  339   0.383   4.898   3.815  0.2648  0.1803 -0.5925
   93SOL    HW2  340   0.362   4.835   3.679 -0.7042 -1.8719  0.4748
   94SOL     OW  341   0.756   3.800   4.172  0.1752  0.0892 -0.1309
   94SOL    HW1  342   0.832   3.799   4.114 -0.3650  1.7084 -0.9379
   94SOL    HW2  343   0.683   3.776   4.116  0.0144 -0.9846  0.5291
   95SOL     OW  344   0.486   3.636   2.379  0.5095  0.1936 -0.1568
   95SOL    HW1  345   0.421   3.692   2.337 -0.1137 -1.4266 -1.4583
   95SOL    HW2  346   0.540   3.605   2.307 -0.2710 -2.2550  0.2258
   96SOL     OW  347   0.401   0.935   3.487  0.0955  0.4587  0.0128
   96SOL    HW1  348   0.393   0.947   3.393  0.0863  1.5545  0.1468
   96SOL    HW2  349   0.480   0.882   3.498  0.1650  0.4358 -0.5986
   97SOL     OW  350   3.867   0.772   4.427  0.1861 -0.0681  0.1622
   97SOL    HW1  351   3.812   0.838   4.469  0.5415  0.0392  0.4576
   97SOL    HW2  352   3.866   0.797   4.334 -1.1037 -0.6680 -0.0077
   98SOL     OW  353   0.077   0.947   0.417 -0.0971  0.5215 -1.0924
   98SOL    HW1  354   0.139   1.015   0.392  0.4473 -0.1121 -1.5267
   98SOL    HW2  355   0.104   0.871   0.365 -0.4497 -0.1337 -0.3359
   99SOL     OW  356   0.616   1.744   4.375  0.5767  0.3254  0.2537
   99SOL    HW1  357   0.631   1.790   4.292  1.7646 -2.8190 -1.4135
   99SOL    HW2  358   0.598   1.654   4.350 -1.3835 -0.3085  3.3738
  100SOL     OW  359   5.389   1.966   2.963 -0.6435 -0.0821  0.0443
  100SOL    HW1  360   5.408   2.033   3.028  1.4109 -1.1978  0.6555
  100SOL    HW2  361   5.295   1.949   2.973 -1.0417  2.0682  0.4308
  101SOL     OW  362   2.355   0.445   0.856  0.3204  0.2120  0.4211
  101SOL    HW1  363   2.408   0.366   0.867 -0.0358 -0.1738 -0.5514
  101SOL    HW2  364   2.418   0.513   0.832  0.5416  0.0686  0.5911
  102SOL     OW  365   4.473   3.587   1.591  0.3135  0.3673 -0.1139
  102SOL    HW1  366   4.428   3.507   1.619 -0.6160  0.8830 -0.0997
  102SOL    HW2  367   4.525   3.612   1.667  2.1779 -1.2819 -0.7628
  103SOL     OW  368   1.488   2.678   1.702 -0.1813 -0.0485  0.1419
  103SOL    HW1  369   1.483   2.632   1.619  1.4649  1.5494 -0.9227
  103SOL    HW2  370   1.432   2.627   1.762 -0.8523 -1.6153 -1.7277
  104SOL     OW  371   2.455   3.330   3.482  0.3757  0.1525  0.2034
  104SOL    HW1  372   2.474   3.315   3.574  1.6312 -0.2047 -0.0884
  104SOL    HW2  373   2.421   3.419   3.478  0.0892  0.0863  1.0318
  105SOL     OW  374   2.910   3.512   4.160 -0.0251  0.3323  0.7672
  105SOL    HW1  375   2.873   3.516   4.071 -0.7293  2.8592  1.0815
  105SOL    HW2  376   2.841   3.471   4.213 -1.0576  1.8763  0.7059
  106SOL     OW  377   4.438   3.191   0.798  0.3043 -0.3773 -0.0798
  106SOL    HW1  378   4.353   3.231   0.779 -0.5043 -1.3748  1.2331
  106SOL    HW2  379   4.421   3.135   0.875  1.5278 -2.6135 -1.3282
  107SOL     OW  380   4.015   0.481   3.004  0.0070  0.4243  0.1870
  107SOL    HW1  381   4.016   0.489   2.908 -1.2955 -0.1263  0.1034
  107SOL    HW2  382   4.098   0.438   3.025  0.0363  0.0020 -0.7432
  108SOL     OW  383   0.363   1.169   1.931  0.3829 -0.3376 -0.9475
  108SOL    HW1  384   0.384   1.110   2.003 -1.6099  0.5526  0.4435
  108SOL    HW2  385   0.448   1.202   1.902  1.2901 -1.2032  0.5774
  109SOL     OW  386   0.387   4.398   2.289 -0.0013 -0.5938 -0.2464
  109SOL    HW1  387   0.478   4.425   2.277  0.2026 -0.5439  1.1975
  109SOL    HW2  388   0.356   4.376   2.201  1.0533  0.4831 -0.9104
  110SOL     OW  389   2.663   0.762   4.365  0.2202  0.3857 -0.0480
  110SOL    HW1  390   2.611   0.774   4.285 -0.4051 -1.3037  0.0521
  110SOL    HW2  391   2.725   0.693   4.343 -1.0169 -1.2806  1.3407
  111SOL     OW  392   3.903   1.567   0.294 -0.0403  0.4421 -0.2991
  111SOL    HW1  393   3.848   1.516   0.234  1.0151 -1.1330  0.0098
  111SOL    HW2  394   3.940   1.636   0.239 -0.7641  0.3251 -0.9534
  112SOL     OW  395   5.444   4.578   3.017  0.4289 -0.4497  0.1697
  112SOL    HW1  396   5.395   4.539   2.945  2.7509  1.0457 -2.4274
  112SOL    HW2  397   5.497   4.506   3.052  0.5372 -0.8768 -0.8230
  113SOL     OW  398   1.503   1.646   3.724 -0.2160 -0.1470  0.1809
  113SOL    HW1  399   1.558   1.689   3.659  0.3152 -0.2367  0.5590
  113SOL    HW2  400   1.565   1.614   3.790 -0.8334  1.2043  1.4887
  114SOL     OW  401   4.778   1.338   0.224  0.2792  0.1039 -0.1445
  114SOL    HW1  402   4.778   1.337   0.128 -0.9019 -1.0502 -0.1612
  114SOL    HW2  403   4.744   1.424   0.247  1.7253  0.8638 -0.7248
  115SOL     OW  404   4.985   1.168   2.208 -0.1806  0.2307  0.3660
  115SOL    HW1  405   5.070   1.213   2.205  0.2668 -0.4100  2.0026
  115SOL    HW2  406   4.953   1.184   2.296 -0.8849 -1.0850  0.3745
  116SOL     OW  407   3.427   3.416   3.407 -0.2196 -0.5547  0.2848
  116SOL    HW1  408   3.403   3.505   3.433 -1.0124 -0.3248 -1.1098
  116SOL    HW2  409   3.522   3.419   3.397 -0.3586  0.5417 -1.0520
  117SOL     OW  410   4.210   0.193   2.947 -0.6842  0.2164 -0.4987
  117SOL    HW1  411   4.239   0.147   2.869 -0.9991  0.4755 -0.7733
  117SOL    HW2  412   4.262   0.273   2.949  0.7951 -0.7032  0.6797
  118SOL     OW  413   3.923   1.430   3.553 -0.7634 -0.2927  0.1679
  118SOL    HW1  414   3.829   1.426   3.536 -1.3217  2.3350  1.9748
  118SOL    HW2  415   3.933   1.396   3.642 -0.2530  0.8669  0.5722
  119SOL     OW  416   4.066   3.198   3.534 -0.3937 -0.2575  0.1949
  119SOL    HW1  417   4.057   3.285   3.495  0.1088 -0.6516 -0.8572
  119SOL    HW2  418   4.161   3.187   3.546 -0.0336 -1.9330 -2.8997
  120SOL     OW  419   1.361   3.126   1.177 -0.7285 -0.0166 -0.0307
  120SOL    HW1  420   1.344   3.214   1.146  1.5602  0.1526 -1.0555
  120SOL    HW2  421   1.448   3.105   1.142 -1.1943 -2.6734  0.1918
  121SOL     OW  422   2.949   4.130   0.019  0.2136 -0.0795  0.4822
  121SOL    HW1  423   2.869   4.078   0.016 -0.1728  0.5274 -1.0697
  121SOL    HW2  424   2.927   4.204   0.076 -0.8522  0.8124 -1.0042
  122SOL     OW  425   0.959   4.956   3.740 -0.6009 -0.1879  0.0236
  122SOL    HW1  426   0.900   4.987   3.810 -0.2492  0.3496  0.0880
  122SOL    HW2  427   0.947   5.020   3.669  1.4974  1.2263  0.8378
  123SOL     OW  428   1.062   2.654   1.672 -0.0742  0.4309 -0.7430
  123SOL    HW1  429   1.113   2.734   1.691  0.8246 -0.5066  1.1081
  123SOL    HW2  430   1.119   2.602   1.615  0.0343  0.4153 -0.6211
  124SOL     OW  431   0.567   0.588   0.028 -0.4389  0.3591  0.2046
  124SOL    HW1  432   0.531   0.630   0.106  1.3695  2.0770  0.2088
  124SOL    HW2  433   0.624   0.655  -0.011  0.7640 -1.3382 -1.1240
  125SOL     OW  434   5.122   1.396   0.339  0.0638 -0.1279 -0.0273
  125SOL    HW1  435   5.135   1.477   0.388  1.5524 -0.1058 -0.4049
  125SOL    HW2  436   5.028   1.389   0.328 -0.0829  1.5671 -0.0146
  126SOL     OW  437   2.058   1.062   2.935 -0.0745 -0.1997 -0.4024
  126SOL    HW1  438   2.048   0.967   2.929 -1.8664 -0.0364 -0.5573
  126SOL    HW2  439   2.032   1.094   2.849  1.2047  0.4239 -0.5931
  127SOL     OW  440   1.363   5.006   0.294  0.5075 -0.6868 -0.0437
  127SOL    HW1  441   1.430   4.973   0.354  0.8819 -0.7371 -0.4948
  127SOL    HW2  442   1.298   4.936   0.291 -0.2776 -0.0942  1.4735
  128SOL     OW  443   2.771   3.782   4.241  0.0339 -0.2172  0.4825
  128SOL    HW1  444   2.862   3.756   4.225  0.9828  1.4032  2.7151
  128SOL    HW2  445   2.744   3.729   4.316 -0.0072  1.0085  1.3533
  129SOL     OW  446   3.551   1.965   1.341  0.1184 -0.8055 -0.3659
  129SOL    HW1  447   3.496   1.887   1.344 -1.9110  0.5052 -0.9741
  129SOL    HW2  448   3.609   1.951   1.267  1.9045 -2.9705  1.3012
  130SOL     OW  449   0.773   0.750   4.317  0.2242 -0.2197 -0.5608
  130SOL    HW1  450   0.807   0.832   4.353 -0.2842 -0.2873  0.0993
  130SOL    HW2  451   0.820   0.738   4.234  1.1162  0.1650 -0.1248
  131SOL     OW  452   4.050   3.045   0.696 -0.8553 -0.5534  0.5652
  131SOL    HW1  453   4.123   2.997   0.736 -0.5386 -0.6845 -0.1609
  131SOL    HW2  454   4.090   3.125   0.661 -0.4711 -1.8621 -2.2891
  132SOL     OW  455   1.398   2.712   3.102 -0.1832  0.1798  0.1299
  132SOL    HW1  456   1.416   2.806   3.102 -0.9417  0.3374  0.5648
  132SOL    HW2  457   1.304   2.706   3.085  0.1855 -0.5997 -1.9753
  133SOL     OW  458   4.478   4.203   1.914 -0.0902 -0.3116  0.0850
  133SOL    HW1  459   4.458   4.286   1.958 -0.9697 -0.6296  0.2935
  133SOL    HW2  460   4.397   4.179   1.870 -0.1788 -1.6100  0.9177
  134SOL     OW  461   3.477   5.110   3.394 -0.1839 -0.1460 -0.5981
  134SOL    HW1  462   3.539   5.053   3.439  0.5999  1.5654  0.6010
  134SOL    HW2  463   3.394   5.096   3.440  0.2717  0.5072  0.4574
  135SOL     OW  464   4.883   0.689   0.257  0.7388  0.0310  0.5746
  135SOL    HW1  465   4.922   0.606   0.284  1.5184  0.9500  2.4085
  135SOL    HW2  466   4.931   0.714   0.178  0.7643 -1.0463  0.2357
  136SOL     OW  467   3.182   4.748   4.245  0.3539 -0.3038 -0.1730
  136SOL    HW1  468   3.111   4.793   4.290  1.1737 -0.0794  0.9594
  136SOL    HW2  469   3.220   4.815   4.187 -0.5481 -0.5196 -1.0276
  137SOL     OW  470   2.647   3.579   2.915  0.7133  0.0340  0.3903
  137SOL    HW1  471   2.667   3.666   2.949  1.7004 -0.9008  2.3327
  137SOL    HW2  472   2.556   3.585   2.886  0.5855  1.5447  1.0263
  138SOL     OW  473   4.166   0.366   2.558  0.1705  0.3210 -0.4619
  138SOL    HW1  474   4.196   0.278   2.580 -0.2297  0.1570 -0.5664
  138SOL    HW2  475   4.143   0.362   2.465  0.2002  0.5515 -0.4822
  139SOL     OW  476   2.200   5.040   2.685  0.8514  0.3257 -0.0043
  139SOL    HW1  477   2.122   5.086   2.654 -0.8390 -1.6485  1.0709
  139SOL    HW2  478   2.250   5.106   2.733 -0.8428  1.3466  0.4287
  140SOL     OW  479   3.682   2.812   3.795  0.1203  0.5778  0.2427
  140SOL    HW1  480   3.688   2.856   3.711  0.0730 -0.1084 -0.1242
  140SOL    HW2  481   3.755   2.750   3.796 -0.6986 -0.4268  0.0926
  141SOL     OW  482   0.045   5.124   2.299  0.4342 -0.1362 -0.1310
  141SOL    HW1  483  -0.004   5.163   2.371 -0.4466  1.2426 -1.4326
  141SOL    HW2  484   0.119   5.081   2.342 -1.2065 -1.2318  1.7677
  142SOL     OW  485   4.934   5.002   2.703 -0.2158  0.4326  0.6515
  142SOL    HW1  486   4.944   4.907   2.699 -0.7091  0.3549  1.1732
  142SOL    HW2  487   5.016   5.033   2.742  0.0622  0.2513  0.2195
  143SOL     OW  488   3.747   1.548   1.502  0.0654 -0.2225 -0.3410
  143SOL    HW1  489   3.804   1.554   1.425 -1.1443  1.5495 -1.1637
  143SOL    HW2  490   3.660   1.530   1.467 -0.2406 -0.9470  0.7390
  144SOL     OW  491   0.858   1.833   1.215 -0.0343 -0.4185  0.1708
  144SOL    HW1  492   0.887   1.832   1.307 -0.9344 -0.0514  0.4665
  144SOL    HW2  493   0.829   1.923   1.200 -0.0120 -0.5093 -0.4398
  145SOL     OW  494   5.044   0.296   1.764  0.1332  0.3094  0.2645
  145SOL    HW1  495   5.016   0.223   1.709 -1.2772  1.9043 -1.2593
  145SOL    HW2  496   5.099   0.350   1.706 -0.4623  1.4485  0.7176
  146SOL     OW  497   4.978   2.489   0.797 -0.2284 -0.6919 -0.1326
  146SOL    HW1  498   4.892   2.488   0.840 -0.4476  0.0649 -0.5495
  146SOL    HW2  499   4.961   2.521   0.709  0.7247  1.3293  0.3584
  147SOL     OW  500   0.612   3.566   3.336  0.0787 -0.1221 -0.1684
  147SOL    HW1  501   0.701   3.602   3.332  0.0213 -0.0851 -1.4826
  147SOL    HW2  502   0.615   3.490   3.278 -0.9209  0.2797 -0.7704
  148SOL     OW  503   2.325   4.332   1.894 -0.2872  0.0187 -0.2722
  148SOL    HW1  504   2.329   4.336   1.990 -1.4006 -0.4252 -0.1860
  148SOL    HW2  505   2.415   4.321   1.867  0.1162  0.7663  0.6977
  149SOL     OW  506   5.030   2.456   3.767 -0.2331  0.8976 -0.2403
  149SOL    HW1  507   5.020   2.500   3.852 -1.8748  2.4488 -1.1452
  149SOL    HW2  508   4.942   2.460   3.728  0.4520  0.1237 -1.9639
  150SOL     OW  509   3.658   4.474   4.192  0.8832 -0.4475  0.4114
  150SOL    HW1  510   3.676   4.450   4.283 -0.1879  0.0567  0.7773
  150SOL    HW2  511   3.696   4.561   4.182  0.4024 -0.2141  0.5896
  151SOL     OW  512   2.739   2.452   4.357 -0.5525 -0.0663 -0.4413
  151SOL    HW1  513   2.799   2.504   4.304 -0.5584  0.0980 -0.2872
  151SOL    HW2  514   2.795   2.391   4.405 -0.6109 -0.7432 -1.2249
  152SOL     OW  515   4.691   3.568   2.241 -0.1746  0.2857 -0.0118
  152SOL    HW1  516   4.754   3.530   2.302 -1.3168 -0.1308  0.9571
  152SOL    HW2  517   4.735   3.567   2.156  0.9627 -0.3344  0.5648
  153SOL     OW  518   5.254   0.149   3.222 -0.4148 -0.1177  0.2020
  153SOL    HW1  519   5.272   0.243   3.228  2.1043 -0.5665  0.5462
  153SOL    HW2  520   5.178   0.144   3.164 -0.9311  2.1469  0.5620
  154SOL     OW  521   4.917   3.622   0.135  0.6052  0.0994  0.1309
  154SOL    HW1  522   4.868   3.604   0.054 -0.8722  0.4335  0.9185
  154SOL    HW2  523   4.878   3.563   0.200  0.9985  0.6366  0.8640
  155SOL     OW  524   2.173   2.199   2.281 -0.3795  0.8541  0.0001
  155SOL    HW1  525   2.240   2.134   2.300 -1.2225  0.3267  1.3146
  155SOL    HW2  526   2.221   2.282   2.275  0.3867  0.5061  1.0085
  156SOL     OW  527   4.196   2.404   3.222 -0.4300  0.2384 -0.1273
  156SOL    HW1  528   4.215   2.451   3.303  1.4730  1.8688 -1.4103
  156SOL    HW2  529   4.117   2.446   3.188  0.0084  1.0443 -0.1717
  157SOL     OW  530   3.058   2.062   1.420 -0.2289 -0.6921  0.2719
  157SOL    HW1  531   3.012   2.081   1.338 -1.2558  1.0197  1.1754
  157SOL    HW2  532   3.143   2.106   1.410 -0.8598  0.6717  0.5849
  158SOL     OW  533   2.879   1.573   3.386 -0.0370 -0.0575 -0.3244
  158SOL    HW1  534   2.796   1.620   3.377 -0.5858 -0.8643  0.3505
  158SOL    HW2  535   2.880   1.544   3.477 -0.5645 -2.8346 -1.1068
  159SOL     OW  536   1.892   2.249   0.410 -0.0969  0.1315  0.2757
  159SOL    HW1  537   1.901   2.172   0.353 -0.2147 -0.6034  1.2386
  159SOL    HW2  538   1.924   2.220   0.495 -0.2431  1.1269  0.6825
  160SOL     OW  539   3.474   4.695   3.758  0.0672  0.4975 -0.2284
  160SOL    HW1  540   3.548   4.701   3.697  1.3990 -0.6691  1.1703
  160SOL    HW2  541   3.515   4.695   3.845 -1.4396 -1.4795  0.5688
  161SOL     OW  542   2.618   4.870   3.526 -0.0261 -0.1885  0.1944
  161SOL    HW1  543   2.689   4.925   3.495 -0.2298 -0.5332 -0.9450
  161SOL    HW2  544   2.659   4.808   3.586  0.5265  0.0050  0.0174
  162SOL     OW  545   0.366   0.765   2.905  0.4763 -0.1531 -0.0878
  162SOL    HW1  546   0.340   0.778   2.996  0.5073 -1.7052  0.1736
  162SOL    HW2  547   0.318   0.832   2.856 -2.0174 -1.2477  0.7044
  163SOL     OW  548   2.742   4.207   2.218  0.1986  0.2928  0.3661
  163SOL    HW1  549   2.787   4.248   2.145 -0.7360  1.6316  0.5225
  163SOL    HW2  550   2.760   4.264   2.293  0.0133 -0.3310  0.9033
  164SOL     OW  551   3.873   0.203   2.681  0.3437 -0.6403 -0.1545
  164SOL    HW1  552   3.915   0.117   2.677 -0.4121 -0.9598 -1.6806
  164SOL    HW2  553   3.931   0.261   2.630  0.1469 -0.5533 -0.2807
  165SOL     OW  554   1.041   4.499   1.421 -0.1495  0.7190 -0.1975
  165SOL    HW1  555   1.018   4.592   1.413  0.2559  0.6529 -3.4475
  165SOL    HW2  556   0.971   4.453   1.375  1.0905 -0.3378 -1.1018
  166SOL     OW  557   2.310   2.465   2.307  0.0391  0.4556  0.0353
  166SOL    HW1  558   2.368   2.428   2.373 -2.1525  2.0394  3.0687
  166SOL    HW2  559   2.244   2.513   2.357 -1.3376  2.4474 -3.3750
  167SOL     OW  560   5.187   2.886   4.216  0.4664  0.3219  0.1841
  167SOL    HW1  561   5.254   2.920   4.275  0.3254 -0.5481  0.8853
  167SOL    HW2  562   5.131   2.833   4.273  0.4467 -0.7281 -0.7734
  168SOL     OW  563   4.392   2.533   0.526  0.2798 -0.3916  0.1897
  168SOL    HW1  564   4.469   2.582   0.498  0.5312 -0.6063  0.4942
  168SOL    HW2  565   4.388   2.457   0.468 -0.9310  0.7035 -1.2270
  169SOL     OW  566   1.099   2.150   1.568  0.1723  0.3020  0.0765
  169SOL    HW1  567   1.019   2.105   1.541 -0.0474  0.6068  0.2137
  169SOL    HW2  568   1.125   2.105   1.649  1.9593 -1.9695 -1.6422
  170SOL     OW  569   2.121   0.529   0.956  0.6707 -0.2645 -0.5752
  170SOL    HW1  570   2.061   0.454   0.962 -0.9611  1.0818  1.2040
  170SOL    HW2  571   2.206   0.490   0.937  0.0336 -2.6595  1.0006
  171SOL     OW  572   5.192   2.811   0.030  0.0354 -0.2892 -0.3525
  171SOL    HW1  573   5.201   2.890  -0.024  0.1944 -1.0819 -1.5310
  171SOL    HW2  574   5.196   2.843   0.120 -0.5395  1.1205 -0.7902
  172SOL     OW  575   3.382   3.317   2.258  0.4399  0.5017 -0.6196
  172SOL    HW1  576   3.423   3.344   2.341 -1.4647 -2.5405  1.5344
  172SOL    HW2  577   3.288   3.327   2.274 -0.0395 -1.6685 -1.7472
  173SOL     OW  578   4.445   4.187   4.115 -0.2028  0.0051 -0.3623
  173SOL    HW1  579   4.376   4.252   4.100  0.1561  0.3712 -0.4610
  173SOL    HW2  580   4.526   4.234   4.097  0.0468 -0.5713 -0.7680
  174SOL     OW  581   4.561   0.990   2.157  0.0259 -0.4481 -0.1470
  174SOL    HW1  582   4.512   0.910   2.179  0.0215 -0.0455  1.3924
  174SOL    HW2  583   4.554   1.044   2.235  0.1452  1.0221 -1.1264
  175SOL     OW  584   5.249   3.108   1.435  0.3792 -0.0420 -0.1689
  175SOL    HW1  585   5.332   3.140   1.470  0.2569 -0.4505  0.5080
  175SOL    HW2  586   5.198   3.187   1.418  0.9529  0.2201 -0.7306
  176SOL     OW  587   4.135   1.929   2.083  0.2257 -0.1791 -0.6467
  176SOL    HW1  588   4.202   1.953   2.019  0.0172  0.0937 -0.7632
  176SOL    HW2  589   4.053   1.932   2.034  0.0686  0.0111 -0.3727
  177SOL     OW  590   4.093   0.883   1.403 -0.5790 -0.1890 -0.3903
  177SOL    HW1  591   4.016   0.923   1.443 -0.6819  0.3021 -1.0735
  177SOL    HW2  592   4.164   0.899   1.466 -0.5505  1.3436 -0.7887
  178SOL     OW  593   2.794   3.847   2.176 -0.3382  0.3441 -0.1567
  178SOL    HW1  594   2.811   3.864   2.269 -0.7247  1.8375 -0.3406
  178SOL    HW2  595   2.879   3.860   2.134 -0.2573  0.1002 -0.0691
  179SOL     OW  596   2.850   3.780   3.004 -0.3608 -0.7584  0.1098
  179SOL    HW1  597   2.873   3.711   3.066  1.0879  0.4733  1.0161
  179SOL    HW2  598   2.920   3.844   3.012 -0.2129 -0.4241 -2.6621
  180SOL     OW  599   5.378   2.537   1.485  0.7493 -0.0847 -0.3800
  180SOL    HW1  600   5.284   2.532   1.470 -0.0855  0.9191  3.3182
  180SOL    HW2  601   5.395   2.630   1.502  2.5225 -0.1862 -1.3489
  181SOL     OW  602   3.109   4.372   2.333 -0.2032 -0.0583 -0.2174
  181SOL    HW1  603   3.015   4.388   2.335 -0.4031 -1.0566 -0.6622
  181SOL    HW2  604   3.116   4.277   2.320  0.8619  0.0788 -0.7267
  182SOL     OW  605   0.993   1.540   0.890 -0.1315  0.0179 -0.3021
  182SOL    HW1  606   0.976   1.470   0.828 -2.1876 -1.2189  1.5114
  182SOL    HW2  607   1.041   1.498   0.962 -2.2738  0.1318  1.2843
  183SOL     OW  608   2.450   0.798   2.733 -0.1137 -0.1832 -0.1628
  183SOL    HW1  609   2.519   0.859   2.708 -0.4561  0.0024 -0.6685
  183SOL    HW2  610   2.376   0.854   2.758 -0.2929 -0.3863 -0.2364
  184SOL     OW  611   3.105   3.017   2.711  0.4712  0.1338 -0.4687
  184SOL    HW1  612   3.068   3.074   2.643 -0.4993  0.4339  0.2982
  184SOL    HW2  613   3.199   3.034   2.707  0.5443 -0.4041 -2.2356
  185SOL     OW  614   1.574   0.339   0.833 -0.3993 -0.1409 -0.0057
  185SOL    HW1  615   1.594   0.432   0.835  1.4669 -0.5329  0.9245
  185SOL    HW2  616   1.596   0.311   0.744 -1.4660  0.3756 -0.4512
  186SOL     OW  617   4.252   3.987   0.360 -0.2376 -0.3743 -0.2119
  186SOL    HW1  618   4.217   4.027   0.439 -1.6240  1.3910 -1.6089
  186SOL    HW2  619   4.347   3.987   0.372 -0.1191  3.2752  0.0370
  187SOL     OW  620   0.481   3.789   3.593  0.3404 -0.0993  0.0106
  187SOL    HW1  621   0.546   3.794   3.664 -1.5715 -1.0432  1.9562
  187SOL    HW2  622   0.466   3.696   3.581  0.3290  0.0705 -1.3774
  188SOL     OW  623   4.052   1.439   0.667  0.0819 -0.4131  0.5403
  188SOL    HW1  624   4.081   1.376   0.733 -2.5511 -1.9764  0.3485
  188SOL    HW2  625   4.012   1.385   0.598  1.0481  1.2850 -1.4738
  189SOL     OW  626   2.868   2.206   1.676  0.7947 -0.6936  0.0206
  189SOL    HW1  627   2.873   2.177   1.767 -0.5311 -1.6296 -0.1833
  189SOL    HW2  628   2.883   2.126   1.624  0.9271 -0.2858 -0.5873
  190SOL     OW  629   0.164   3.473   1.523  0.6361  0.0642  0.0068
  190SOL    HW1  630   0.130   3.539   1.463  0.0559 -0.1466  0.0978
  190SOL    HW2  631   0.259   3.480   1.515  0.5705  0.3654 -0.5749
  191SOL     OW  632   3.261   4.796   2.682 -0.0056 -0.3934  0.4653
  191SOL    HW1  633   3.251   4.850   2.604  1.8938 -0.2916  0.2348
  191SOL    HW2  634   3.247   4.856   2.755  1.4504  0.3323  0.2021
  192SOL     OW  635   3.974   3.062   2.196 -0.2524 -0.2786 -0.3336
  192SOL    HW1  636   3.914   3.127   2.160  0.1209  0.1509 -0.1920
  192SOL    HW2  637   4.049   3.063   2.136  0.3163  0.3484  0.3594
  193SOL     OW  638   4.341   1.299   4.038 -0.3773 -0.1529  0.8291
  193SOL    HW1  639   4.387   1.263   4.114 -0.0121 -0.5459  0.4242
  193SOL    HW2  640   4.329   1.225   3.979 -1.5102 -0.0555  0.9058
  194SOL     OW  641   2.426   3.931   4.062  0.2150  0.0548  0.1587
  194SOL    HW1  642   2.380   3.918   3.979  0.2826  0.0482  0.1221
  194SOL    HW2  643   2.516   3.903   4.044 -0.1528 -1.5993  0.6987
  195SOL     OW  644   2.645   2.116   0.440  0.0862 -0.1839  0.8727
  195SOL    HW1  645   2.629   2.142   0.531  0.0620  1.4823  0.4241
  195SOL    HW2  646   2.568   2.146   0.392 -1.0749 -3.1878  0.6037
  196SOL     OW  647   4.138   0.745   3.618 -0.0381 -0.6933  0.5970
  196SOL    HW1  648   4.092   0.784   3.693 -2.7110 -1.7853 -0.3494
  196SOL    HW2  649   4.153   0.818   3.558  0.6697 -0.0939  1.4760
  197SOL     OW  650   2.142   4.946   1.880  0.0940  0.3447 -0.4237
  197SOL    HW1  651   2.046   4.951   1.881  0.0467  0.2814  1.6670
  197SOL    HW2  652   2.170   5.012   1.944  1.1778 -2.2653  2.0407
  198SOL     OW  653   1.984   3.850   1.473 -0.0528  0.0251 -0.0204
  198SOL    HW1  654   1.901   3.883   1.507  0.5979  0.1289  1.5414
  198SOL    HW2  655   2.044   3.852   1.548  0.9301 -1.5527 -0.6927
  199SOL     OW  656   0.884   0.179   2.241  0.0460 -0.3688  0.6077
  199SOL    HW1  657   0.943   0.223   2.302  2.0367  0.1057 -1.4924
  199SOL    HW2  658   0.936   0.169   2.161 -3.3104  1.9254 -2.1494
  200SOL     OW  659   0.757   1.737   2.079  0.4866 -0.6146 -0.1015
  200SOL    HW1  660   0.820   1.757   2.010 -0.9630 -0.6854 -1.5233
  200SOL    HW2  661   0.809   1.731   2.159  1.7477  3.6737 -0.3596
  201SOL     OW  662   5.196   2.261   1.787  0.0799 -0.1720 -0.1147
  201SOL    HW1  663   5.139   2.336   1.798 -0.4074 -0.7515  1.4975
  201SOL    HW2  664   5.179   2.205   1.862  0.5706 -1.8164 -1.1522
  202SOL     OW  665   1.147   2.519   1.289  0.6052 -0.5394  0.3833
  202SOL    HW1  666   1.223   2.465   1.267 -0.3972 -1.4708 -0.9539
  202SOL    HW2  667   1.100   2.469   1.356 -0.0589 -1.1169 -0.4960
  203SOL     OW  668   1.140   3.918   2.347  0.4467 -0.3276  0.1590
  203SOL    HW1  669   1.079   3.974   2.395 -0.2989  0.4239 -1.5578
  203SOL    HW2  670   1.084   3.854   2.302  0.6417  1.3513 -2.7286
  204SOL     OW  671   1.825   2.505   3.190 -0.0696 -0.3785 -0.0253
  204SOL    HW1  672   1.755   2.540   3.245  1.7366  0.5689  1.8262
  204SOL    HW2  673   1.794   2.519   3.101 -1.6120  1.3875  0.7046
  205SOL     OW  674   0.872   1.854   2.971  0.2531  0.2182  0.0796
  205SOL    HW1  675   0.821   1.783   3.011  0.3104  0.3348  0.3554
  205SOL    HW2  676   0.835   1.861   2.883  1.3981 -1.3394 -0.5730
  206SOL     OW  677   2.576   3.487   4.175 -0.6033  0.7690 -0.3904
  206SOL    HW1  678   2.547   3.396   4.173 -1.0333  0.8935  0.0645
  206SOL    HW2  679   2.545   3.521   4.259 -0.4566  1.3365 -0.5571
  207SOL     OW  680   3.181   0.131   0.980 -0.0611 -0.4413  0.8456
  207SOL    HW1  681   3.199   0.037   0.986 -0.7944 -0.6434  0.0691
  207SOL    HW2  682   3.092   0.141   1.012 -0.2742 -0.1266  0.1725
  208SOL     OW  683   3.661   0.399   1.220 -0.0599  0.3659 -0.0330
  208SOL    HW1  684   3.662   0.448   1.302 -1.2371  0.9231 -0.3218
  208SOL    HW2  685   3.590   0.335   1.231 -0.4277  0.6420 -0.7164
  209SOL     OW  686   0.953   3.734   1.043  0.1295 -0.0725  0.4520
  209SOL    HW1  687   1.011   3.734   1.119 -0.9986  2.5777  1.4323
  209SOL    HW2  688   1.004   3.778   0.974  0.6045 -1.1374  0.1004
  210SOL     OW  689   0.503   2.659   2.179  0.1946  0.4551  0.1168
  210SOL    HW1  690   0.540   2.682   2.093  1.0517 -1.2682 -0.0084
  210SOL    HW2  691   0.411   2.683   2.172  0.2058  0.1877 -1.3569
  211SOL     OW  692   1.645   1.655   1.092 -0.1890  0.0091 -0.0391
  211SOL    HW1  693   1.691   1.644   1.175 -0.1931  0.4454  0.0248
  211SOL    HW2  694   1.617   1.567   1.067  0.7959 -0.2854 -0.1440
  212SOL     OW  695   1.319   3.938   1.081  0.3485 -0.3056 -0.3475
  212SOL    HW1  696   1.401   3.986   1.070  0.5850  0.0641  2.2886
  212SOL    HW2  697   1.341   3.847   1.058  1.6428 -0.2769  0.6320
  213SOL     OW  698   4.310   0.349   4.384  0.1135 -0.0279  0.0881
  213SOL    HW1  699   4.310   0.256   4.361  0.7093  0.0164 -0.1215
  213SOL    HW2  700   4.266   0.353   4.469 -0.0078 -0.4862  0.0484
  214SOL     OW  701   1.909   2.298   3.354 -0.6173 -0.1008  0.0945
  214SOL    HW1  702   1.914   2.356   3.278 -0.1325  0.3930  0.4924
  214SOL    HW2  703   1.997   2.260   3.361 -0.5872  0.0363  0.5381
  215SOL     OW  704   0.436   0.083   2.942 -0.3073  0.0300 -0.3533
  215SOL    HW1  705   0.519   0.063   2.985  0.2311 -0.8537 -1.7371
  215SOL    HW2  706   0.444   0.175   2.917 -0.1416  0.2109  0.3470
  216SOL     OW  707   0.971   3.166   0.338 -0.2683 -0.4261 -0.5958
  216SOL    HW1  708   1.014   3.247   0.311 -0.3160 -0.9568 -2.4759
  216SOL    HW2  709   0.898   3.193   0.392 -0.0263  0.7575 -0.8407
  217SOL     OW  710   4.894   2.981   2.985 -0.2993  0.8164  0.3412
  217SOL    HW1  711   4.915   2.893   2.954  1.4954  1.4108 -0.2264
  217SOL    HW2  712   4.973   3.011   3.030 -0.7258  2.2948  0.1686
  218SOL     OW  713   1.747   1.906   3.946 -0.5202 -0.3059  0.2016
  218SOL    HW1  714   1.718   1.997   3.954 -1.7914 -0.8366  2.3933
  218SOL    HW2  715   1.830   1.902   3.994 -0.9631 -0.4930  0.9635
  219SOL     OW  716   5.187   0.066   0.993 -0.6715 -0.1484 -0.4631
  219SOL    HW1  717   5.219  -0.020   0.967 -2.5727 -0.6068 -1.4377
  219SOL    HW2  718   5.214   0.075   1.084  0.6448 -1.2115 -0.7059
  220SOL     OW  719   3.520   4.707   2.709  0.0843  0.1752  0.6485
  220SOL    HW1  720   3.435   4.751   2.713  0.2293  0.7112 -1.1489
  220SOL    HW2  721   3.574   4.763   2.653  1.3349 -0.6429  0.9784
  221SOL     OW  722   2.870   1.649   1.253 -0.4227 -0.2895 -0.9412
  221SOL    HW1  723   2.961   1.628   1.232  0.4913  0.8159  1.5190
  221SOL    HW2  724   2.841   1.576   1.307 -0.5144  0.0368 -0.5462
  222SOL     OW  725   1.542   2.252   1.273 -0.5554 -0.4936  0.2295
  222SOL    HW1  726   1.554   2.255   1.368  1.7872  0.1510 -0.0232
  222SOL    HW2  727   1.450   2.227   1.261 -0.9056 -0.5949  2.6446
  223SOL     OW  728   3.550   3.939   0.146  0.1594  0.0483 -0.1840
  223SOL    HW1  729   3.534   4.033   0.150 -0.3959 -0.0243 -0.4711
  223SOL    HW2  730   3.585   3.925   0.058  1.8416  0.1994  0.4325
  224SOL     OW  731   0.496   3.036   0.438  0.3552  0.2006 -0.1429
  224SOL    HW1  732   0.402   3.057   0.437  0.3912  0.4769  1.1097
  224SOL    HW2  733   0.501   2.949   0.398 -0.2786  0.7303 -1.4208
  225SOL     OW  734   1.495   2.297   4.124  0.8582 -0.0665 -0.1017
  225SOL    HW1  735   1.516   2.345   4.043  1.5960  1.1908  0.7870
  225SOL    HW2  736   1.581   2.280   4.164  0.4487  1.4729  1.5688
  226SOL     OW  737   1.367   0.629   0.564 -0.3247  0.2647 -0.1870
  226SOL    HW1  738   1.456   0.620   0.529 -0.2437 -1.2015  0.3150
  226SOL    HW2  739   1.375   0.604   0.656 -1.2515  0.1362 -0.1335
  227SOL     OW  740   2.976   3.078   1.751  0.0591  0.4823 -0.0213
  227SOL    HW1  741   2.917   3.010   1.781 -0.9573  1.3711  0.0681
  227SOL    HW2  742   3.021   3.041   1.675 -0.3026 -0.3549  0.1725
  228SOL     OW  743   4.691   3.477   1.425  0.2324 -0.1273  0.6660
  228SOL    HW1  744   4.611   3.515   1.459  0.2102  0.0403  0.4227
  228SOL    HW2  745   4.749   3.552   1.410  1.4252 -0.3932  3.3539
  229SOL     OW  746   2.040   1.214   0.240  0.2470  0.0793 -0.3372
  229SOL    HW1  747   2.029   1.247   0.150 -1.0797 -1.4199 -0.7671
  229SOL    HW2  748   2.001   1.282   0.295 -1.0756 -0.0519 -1.0853
  230SOL     OW  749   5.089   0.098   0.293  0.2110 -0.8791  0.2318
  230SOL    HW1  750   5.128   0.086   0.380 -0.3658  1.2665  0.8443
  230SOL    HW2  751   5.038   0.018   0.278 -0.3596 -0.9301  2.2354
  231SOL     OW  752   5.285   4.901   2.986  0.6346 -0.2580  0.1324
  231SOL    HW1  753   5.267   4.983   3.031  1.8183  1.0280 -1.5987
  231SOL    HW2  754   5.214   4.843   3.014 -1.4418  1.9774 -0.1212
  232SOL     OW  755   2.128   2.449   3.049  0.5369  0.1945  0.0999
  232SOL    HW1  756   2.083   2.530   3.024  1.5007  0.2940 -1.4534
  232SOL    HW2  757   2.210   2.479   3.090  0.2006  0.0008  0.9321
  233SOL     OW  758   4.806   1.906   2.661  0.1829  0.6078 -0.2417
  233SOL    HW1  759   4.897   1.938   2.660  0.5257 -0.3191  0.2049
  233SOL    HW2  760   4.760   1.964   2.601  1.4098  0.1104 -1.7184
  234SOL     OW  761   4.280   3.983   4.101  0.2841  0.6716  0.6321
  234SOL    HW1  762   4.214   3.998   4.169  0.4978  2.2980  0.5271
  234SOL    HW2  763   4.340   4.057   4.109  1.5343 -0.2572  0.0655
  235SOL     OW  764   4.734   2.976   0.388 -0.6026  0.3826  0.6218
  235SOL    HW1  765   4.769   2.975   0.299 -2.1552 -0.2363 -0.0165
  235SOL    HW2  766   4.811   2.975   0.445  0.4126 -1.9869 -0.6883
  236SOL     OW  767   2.266   2.674   0.339 -0.4983 -0.5757 -0.6043
  236SOL    HW1  768   2.290   2.624   0.418  0.0477  1.2403  0.4325
  236SOL    HW2  769   2.220   2.751   0.372  2.6348  1.9882 -1.7018
  237SOL     OW  770   0.671   4.361   2.297 -0.3493  0.0319  0.4282
  237SOL    HW1  771   0.638   4.347   2.386  0.3235 -0.5702  0.5885
  237SOL    HW2  772   0.668   4.274   2.257  1.4987 -0.1586  0.6132
  238SOL     OW  773   1.312   5.098   2.550  0.1544 -0.0586  0.1565
  238SOL    HW1  774   1.248   5.027   2.543  0.7815 -0.7242  0.9681
  238SOL    HW2  775   1.270   5.161   2.609  0.6913 -1.0263  1.6168
  239SOL     OW  776   3.244   4.597   3.636  0.4048 -0.2324 -0.0644
  239SOL    HW1  777   3.319   4.636   3.681 -0.3873  0.1965  0.9129
  239SOL    HW2  778   3.259   4.502   3.642  1.5487 -0.1324 -1.0850
  240SOL     OW  779   3.499   4.331   1.301 -0.0995  0.4982  0.6771
  240SOL    HW1  780   3.404   4.336   1.297 -0.1094  0.8257  1.1692
  240SOL    HW2  781   3.522   4.377   1.382  0.4380 -0.1137  0.8759
  241SOL     OW  782   1.964   3.202   1.904 -0.3040  0.0293 -0.3246
  241SOL    HW1  783   2.018   3.256   1.846 -0.1553  0.5863  0.3191
  241SOL    HW2  784   1.905   3.265   1.947  0.3420 -0.2043  0.9536
  242SOL     OW  785   2.834   1.888   2.217 -0.4377  0.8892  0.5080
  242SOL    HW1  786   2.809   1.972   2.180 -0.0372  1.0034  0.4921
  242SOL    HW2  787   2.810   1.894   2.309  1.0220  1.6291  0.8781
  243SOL     OW  788   2.937   2.299   0.629 -0.3715 -0.4552 -0.0236
  243SOL    HW1  789   3.026   2.296   0.594 -0.4670  1.0393 -0.4778
  243SOL    HW2  790   2.930   2.221   0.683  1.1341 -0.7279 -0.1687
  244SOL     OW  791   1.002   1.320   0.338 -0.9056 -0.3405  0.4935
  244SOL    HW1  792   0.953   1.261   0.280 -1.1529 -0.4718  0.8359
  244SOL    HW2  793   0.979   1.408   0.307  0.5454 -0.3931 -0.9362
  245SOL     OW  794   1.024   3.024   1.775 -0.1357 -0.0840  0.4592
  245SOL    HW1  795   1.001   2.999   1.686  0.7343 -2.0796  0.7346
  245SOL    HW2  796   1.111   2.987   1.789 -0.3938 -0.1239  2.2350
  246SOL     OW  797   2.745   3.291   3.626  0.1580  0.5034  0.4147
  246SOL    HW1  798   2.662   3.301   3.672 -0.9259 -0.6785 -1.2076
  246SOL    HW2  799   2.764   3.198   3.628  1.0635  0.6608  0.0858
  247SOL     OW  800   4.260   2.715   3.184  0.1944 -0.2858 -0.0359
  247SOL    HW1  801   4.278   2.809   3.192  0.0112 -0.1136 -1.4879
  247SOL    HW2  802   4.167   2.711   3.163  0.2455 -0.7930 -0.1662
  248SOL     OW  803   4.469   0.836   1.784 -0.2167 -0.0596  0.2272
  248SOL    HW1  804   4.488   0.928   1.803  1.3674 -0.4591  0.7095
  248SOL    HW2  805   4.553   0.800   1.755 -0.6087 -1.5634  0.8796
  249SOL     OW  806   0.729   0.770   1.284 -0.2257 -0.6908 -0.2167
  249SOL    HW1  807   0.635   0.754   1.287 -0.4571  0.6342  0.4377
  249SOL    HW2  808   0.741   0.852   1.333  1.2016 -0.5880 -0.6878
  250SOL     OW  809   2.886   4.193   1.953 -0.3289 -0.3258 -0.4132
  250SOL    HW1  810   2.947   4.221   2.021 -0.4568  0.1951 -0.5066
  250SOL    HW2  811   2.905   4.250   1.879 -0.8563 -0.2305 -0.4806
  251SOL     OW  812   3.667   2.545   0.905  0.1725  0.2129 -0.3689
  251SOL    HW1  813   3.754   2.582   0.919  0.0088  0.6349 -0.4549
  251SOL    HW2  814   3.613   2.584   0.974  0.4710 -1.5403  0.9446
  252SOL     OW  815   1.003   3.916   1.863  0.5749  0.6633 -0.2204
  252SOL    HW1  816   0.965   3.958   1.786 -0.2759  0.3261  0.0097
  252SOL    HW2  817   0.969   3.966   1.937  0.4613  0.2652 -0.0025
  253SOL     OW  818   1.667   3.207   1.438  0.3781  0.5112 -0.0331
  253SOL    HW1  819   1.573   3.223   1.436  0.0841 -1.0781 -1.7820
  253SOL    HW2  820   1.696   3.227   1.349  1.8074  1.4207  0.5954
  254SOL     OW  821   2.867   3.912   2.440  0.3206 -0.3620  0.0099
  254SOL    HW1  822   2.854   3.953   2.526  1.4639 -0.2605  0.1543
  254SOL    HW2  823   2.882   3.820   2.460 -0.8974 -0.6215 -0.2106
  255SOL     OW  824   1.899   2.261   3.017  0.3628 -0.1065  0.0951
  255SOL    HW1  825   1.977   2.317   3.024  1.4622 -1.6525  1.0362
  255SOL    HW2  826   1.864   2.278   2.930  0.8607  1.7350  0.2109
  256SOL     OW  827   2.421   0.930   2.195 -0.1594 -0.1611 -0.4338
  256SOL    HW1  828   2.389   0.992   2.129  0.8004  0.4663 -0.3320
  256SOL    HW2  829   2.498   0.890   2.154 -0.5789 -1.0440 -0.3625
  257SOL     OW  830   2.289   4.883   4.268 -0.2929  0.2482  0.0763
  257SOL    HW1  831   2.305   4.967   4.226 -1.3564  0.1402 -0.5841
  257SOL    HW2  832   2.352   4.823   4.228 -0.2935  0.4850 -0.2813
  258SOL     OW  833   0.514   3.175   2.814 -0.2538  0.2994 -0.3362
  258SOL    HW1  834   0.433   3.128   2.796 -0.3364 -0.3592  1.5412
  258SOL    HW2  835   0.568   3.159   2.736 -0.9398 -1.4745 -0.5073
  259SOL     OW  836   3.123   2.605   1.386  0.6408  0.1244  0.2492
  259SOL    HW1  837   3.103   2.512   1.374 -1.8042  0.3592  1.6853
  259SOL    HW2  838   3.093   2.647   1.306  0.0031 -0.1308  0.3507
  260SOL     OW  839   4.454   5.072   1.132 -0.1183  0.0392 -0.0623
  260SOL    HW1  840   4.374   5.033   1.168  0.4973 -1.8112 -0.5874
  260SOL    HW2  841   4.518   5.001   1.134  1.3417  1.3144 -0.2302
  261SOL     OW  842   1.635   0.164   3.709  0.2366  0.0129 -0.4597
  261SOL    HW1  843   1.587   0.239   3.674  0.3294  0.3269  0.0727
  261SOL    HW2  844   1.704   0.149   3.645  0.9770  1.1703  0.0299
  262SOL     OW  845   4.790   4.959   2.999 -0.5253  0.6932  0.0112
  262SOL    HW1  846   4.773   4.865   2.995  0.2320  0.5443  0.2124
  262SOL    HW2  847   4.758   4.993   2.915  0.0386  0.1107 -0.4518
  263SOL     OW  848   4.547   4.945   1.453 -0.8032  0.2710  0.6252
  263SOL    HW1  849   4.526   4.880   1.386 -1.7876  1.5462 -0.3717
  263SOL    HW2  850   4.518   4.906   1.535 -0.5177 -0.9168  0.1749
  264SOL     OW  851   0.122   3.297   1.855  0.2119 -0.0802 -0.3517
  264SOL    HW1  852   0.097   3.331   1.769  0.6172  0.9880 -0.0568
  264SOL    HW2  853   0.210   3.263   1.843 -0.2089 -1.1093 -0.6567
  265SOL     OW  854   1.307   1.029   0.288  0.8151  0.3274  0.1004
  265SOL    HW1  855   1.353   1.077   0.219 -0.2658  2.3508  0.7103
  265SOL    HW2  856   1.231   0.990   0.245  1.4824 -0.5525 -0.3156
  266SOL     OW  857   1.561   2.205   3.519  0.2372  0.4126  0.6445
  266SOL    HW1  858   1.605   2.232   3.438 -1.1461  0.1609 -0.2335
  266SOL    HW2  859   1.501   2.276   3.539 -1.0220 -0.4691  0.1748
  267SOL     OW  860   3.204   0.430   0.511 -0.1353 -0.1090  0.8644
  267SOL    HW1  861   3.281   0.431   0.455 -0.1280 -1.8276  0.7873
  267SOL    HW2  862   3.238   0.437   0.600  0.0344  0.0714  0.7849
  268SOL     OW  863   2.025   3.727   1.790  0.0384  0.2432  0.4333
  268SOL    HW1  864   1.933   3.741   1.765 -0.4467 -2.3753  0.4489
  268SOL    HW2  865   2.056   3.814   1.817 -1.8268  1.5880 -1.4084
  269SOL     OW  866   0.644   3.572   2.123  0.7453  0.1106 -0.2788
  269SOL    HW1  867   0.659   3.479   2.142  1.7486 -0.0888 -1.8961
  269SOL    HW2  868   0.723   3.601   2.077  0.2115  1.6346 -0.3022
  270SOL     OW  869   0.080   0.054   1.511  0.1324  0.4451  0.7286
  270SOL    HW1  870   0.149   0.071   1.575  0.4671  2.6104 -0.1092
  270SOL    HW2  871   0.109  -0.025   1.465  2.4899  1.6925 -0.0988
  271SOL     OW  872   0.657   2.675   1.063 -0.2252  0.0763  0.1097
  271SOL    HW1  873   0.724   2.619   1.102  0.5127 -0.5204 -1.8645
  271SOL    HW2  874   0.693   2.764   1.068 -0.1005 -0.0019  0.6557
  272SOL     OW  875   0.917   3.009   2.027  0.1265  0.0538 -0.5077
  272SOL    HW1  876   0.948   3.015   1.936 -1.4086 -0.2254 -1.0892
  272SOL    HW2  877   0.897   3.099   2.052  1.7981  0.2921  0.0382
  273SOL     OW  878   2.668   0.320   4.241  0.3036 -0.3722 -0.3248
  273SOL    HW1  879   2.643   0.239   4.285 -2.5188  0.6517  0.1656
  273SOL    HW2  880   2.641   0.308   4.150  0.3442 -0.1863 -0.3626
  274SOL     OW  881   3.192   2.859   0.898 -0.2220  0.0993  0.4278
  274SOL    HW1  882   3.269   2.916   0.892 -0.1971 -0.0475 -1.0729
  274SOL    HW2  883   3.119   2.916   0.876 -0.2145 -0.3731 -0.9280
  275SOL     OW  884   4.733   4.196   0.437  0.3181 -0.7173  0.0972
  275SOL    HW1  885   4.770   4.283   0.456 -0.5394 -0.4970  0.8158
  275SOL    HW2  886   4.809   4.141   0.421  0.9071  0.0266  0.2784
  276SOL     OW  887   1.899   2.012   4.394  0.1171 -0.0101 -0.0032
  276SOL    HW1  888   1.874   1.922   4.417  0.4203 -0.0203  0.2899
  276SOL    HW2  889   1.880   2.063   4.473  0.1285  0.1493 -0.1030
  277SOL     OW  890   5.064   4.761   3.909  0.4615  0.2885 -0.5822
  277SOL    HW1  891   5.111   4.839   3.881  1.3111  0.5419  1.3717
  277SOL    HW2  892   5.119   4.723   3.978 -2.3839  0.9190  2.2899
  278SOL     OW  893   1.607   2.936   2.881  0.5576 -0.6654  0.7809
  278SOL    HW1  894   1.565   2.972   2.958 -1.6311  1.5253 -1.2799
  278SOL    HW2  895   1.538   2.888   2.836  1.1797 -0.0825 -0.8632
  279SOL     OW  896   0.160   3.138   3.063  0.2243 -0.2055 -0.1077
  279SOL    HW1  897   0.117   3.107   3.143 -1.4750  0.6707 -0.6177
  279SOL    HW2  898   0.114   3.092   2.993  0.8855 -0.0661 -0.6317
  280SOL     OW  899   0.379   5.117   1.575  0.5087  0.0990 -0.4798
  280SOL    HW1  900   0.394   5.049   1.510  1.9737  0.9211 -1.0382
  280SOL    HW2  901   0.338   5.189   1.526  1.4270  0.6404 -0.4775
  281SOL     OW  902   2.641   2.494   2.356  0.1949 -0.3452 -0.0498
  281SOL    HW1  903   2.610   2.507   2.446 -0.2180 -0.6529 -0.1438
  281SOL    HW2  904   2.673   2.404   2.355  1.0469 -0.0495  0.0298
  282SOL     OW  905   0.017   1.756   2.771 -0.2480 -0.6730  0.9674
  282SOL    HW1  906   0.052   1.779   2.857 -0.3345  1.5808  0.4664
  282SOL    HW2  907  -0.078   1.752   2.784 -0.4075  1.2634  0.7094
  283SOL     OW  908   3.766   0.836   3.398 -0.0188 -0.2467 -0.0525
  283SOL    HW1  909   3.851   0.862   3.362 -0.3254  1.2110  0.2214
  283SOL    HW2  910   3.733   0.770   3.337  1.0443 -0.4074 -0.4772
  284SOL     OW  911   3.968   0.319   1.183  0.3273  0.2859 -0.1012
  284SOL    HW1  912   3.982   0.385   1.114 -1.0784 -0.7763 -1.4711
  284SOL    HW2  913   3.876   0.330   1.208  0.6748  0.2747  1.2356
  285SOL     OW  914   0.748   0.262   1.895  0.4066  0.7159  0.3700
  285SOL    HW1  915   0.658   0.283   1.870  0.7694  0.9313 -0.7673
  285SOL    HW2  916   0.803   0.299   1.826  1.3543  0.2683  0.8552
  286SOL     OW  917   0.684   4.381   3.628 -0.0022 -0.7259  0.1902
  286SOL    HW1  918   0.709   4.302   3.579  1.0096  0.4730 -1.3212
  286SOL    HW2  919   0.767   4.423   3.650 -0.4869 -0.5804  1.9038
  287SOL     OW  920   4.579   3.909   2.963 -0.0463  0.5865 -0.2562
  287SOL    HW1  921   4.510   3.882   3.023 -1.1626  1.8852 -0.8967
  287SOL    HW2  922   4.570   3.849   2.889 -0.0287  0.2923 -0.0191
  288SOL     OW  923   2.193   4.001   2.378 -0.1488  0.0923 -0.5331
  288SOL    HW1  924   2.274   4.038   2.343 -1.5722  1.0349 -3.1116
  288SOL    HW2  925   2.153   3.957   2.303 -1.8873 -0.5808  0.7413
  289SOL     OW  926   3.753   1.199   3.255  0.7293  0.2078 -0.7588
  289SOL    HW1  927   3.731   1.260   3.184  1.6734  0.8953 -0.4765
  289SOL    HW2  928   3.809   1.250   3.313 -0.7246 -0.0586  0.9622
  290SOL     OW  929   2.648   1.255   1.712 -0.0655  0.6512  0.2198
  290SOL    HW1  930   2.666   1.343   1.744 -1.2975  0.4676  1.4752
  290SOL    HW2  931   2.646   1.200   1.791  1.2106 -0.6213 -0.5775
  291SOL     OW  932   4.153   0.145   0.418  0.2753 -0.0299  0.5938
  291SOL    HW1  933   4.108   0.163   0.335  1.2577 -1.4065 -0.2982
  291SOL    HW2  934   4.220   0.213   0.425  1.3016 -0.8577 -0.6518
  292SOL     OW  935   1.383   2.815   3.740  0.2770  0.0512 -0.2871
  292SOL    HW1  936   1.405   2.722   3.749  0.4974  0.2167  1.1552
  292SOL    HW2  937   1.362   2.843   3.829  1.8746  1.7811 -0.3818
  293SOL     OW  938   2.728   4.723   3.731 -0.2628  0.0068  0.1867
  293SOL    HW1  939   2.682   4.644   3.758  0.0626  0.3898  1.9753
  293SOL    HW2  940   2.820   4.695   3.722 -0.2565  0.0341  0.1665
  294SOL     OW  941   1.092   1.041   1.778  0.6901 -0.0971  0.1679
  294SOL    HW1  942   1.186   1.034   1.758  0.3033 -1.3002 -1.4737
  294SOL    HW2  943   1.072   1.134   1.768  1.7311  0.2067  0.7284
  295SOL     OW  944   0.264   5.104   0.195 -0.3744 -0.6489  0.3535
  295SOL    HW1  945   0.358   5.091   0.184 -0.8644 -3.0896 -2.2171
  295SOL    HW2  946   0.234   5.024   0.237 -1.4925 -0.6673 -0.4274
  296SOL     OW  947   4.500   3.675   4.418 -0.2161  0.1992 -0.1991
  296SOL    HW1  948   4.425   3.663   4.360  0.0157  0.2442 -0.5086
  296SOL    HW2  949   4.570   3.624   4.378 -0.1851 -0.1454  0.2866
  297SOL     OW  950   3.413   0.439   3.489  0.2639  0.8635  0.0120
  297SOL    HW1  951   3.469   0.514   3.465 -0.2516  1.0604 -0.6209
  297SOL    HW2  952   3.328   0.479   3.508  0.3590  0.5782  1.0787
  298SOL     OW  953   0.740   1.869   2.746 -0.0111  0.5021  0.0797
  298SOL    HW1  954   0.666   1.912   2.704 -0.4165  0.0994  0.3713
  298SOL    HW2  955   0.768   1.802   2.683 -1.6737 -1.2290  1.0967
  299SOL     OW  956   2.678   4.474   3.778 -0.7482  0.7380 -0.2637
  299SOL    HW1  957   2.692   4.416   3.703  0.0095  1.7157 -0.9188
  299SOL    HW2  958   2.641   4.418   3.845  0.2269 -0.5711 -0.7616
  300SOL     OW  959   4.328   4.606   2.699  0.3522  0.0037 -0.2711
  300SOL    HW1  960   4.406   4.628   2.751  1.3727 -0.9437 -1.3521
  300SOL    HW2  961   4.273   4.684   2.705  1.3594  0.6834  0.5514
  301SOL     OW  962   5.316   1.684   1.929 -0.5999  0.1344 -0.4235
  301SOL    HW1  963   5.292   1.751   1.865 -1.3027 -0.0061 -0.3137
  301SOL    HW2  964   5.397   1.717   1.968 -0.8431  0.8403 -0.4935
  302SOL     OW  965   5.076   4.489   1.536  0.2963 -0.1532  0.2352
  302SOL    HW1  966   4.990   4.449   1.524 -0.2672  1.0366  0.1449
  302SOL    HW2  967   5.058   4.583   1.537  1.7301  0.1654 -0.9166
  303SOL     OW  968   3.394   3.684   3.484 -0.4559 -0.3734  0.2206
  303SOL    HW1  969   3.470   3.727   3.524  0.1375 -2.0171  0.9703
  303SOL    HW2  970   3.358   3.749   3.424  1.1099  0.7122  0.3969
  304SOL     OW  971   4.878   0.681   2.156  0.4813  0.0067 -0.0359
  304SOL    HW1  972   4.872   0.610   2.092  2.2722  1.0262 -1.3938
  304SOL    HW2  973   4.866   0.761   2.105  0.5559  0.7823  1.1320
  305SOL     OW  974   0.690   3.845   3.797 -0.4822 -0.7187 -0.2669
  305SOL    HW1  975   0.618   3.841   3.861 -0.2938 -2.3423 -0.1027
  305SOL    HW2  976   0.769   3.836   3.850  0.0185  2.4155 -0.2902
  306SOL     OW  977   0.950   2.914   0.647 -0.5031  0.0038  0.5642
  306SOL    HW1  978   0.938   2.842   0.584 -0.4098 -0.9097  1.5635
  306SOL    HW2  979   0.864   2.957   0.650 -0.0577  1.1511 -1.4427
  307SOL     OW  980   1.465   3.646   3.281  0.1731  0.2917 -0.1875
  307SOL    HW1  981   1.511   3.643   3.365  1.6165  0.4559 -0.9551
  307SOL    HW2  982   1.471   3.737   3.254 -1.4609  0.5284  0.1307
  308SOL     OW  983   5.092   1.945   2.787  0.3773 -0.2004 -0.3517
  308SOL    HW1  984   5.135   1.861   2.802 -0.5196 -0.4367  1.0401
  308SOL    HW2  985   5.094   1.989   2.872  2.3984  1.9960 -1.4147
  309SOL     OW  986   1.660   2.425   1.088  0.2421  0.1786  0.0540
  309SOL    HW1  987   1.755   2.424   1.097  0.3233 -2.7521  0.0079
  309SOL    HW2  988   1.630   2.351   1.142 -1.9129  0.4458 -0.6582
  310SOL     OW  989   4.222   1.073   2.508 -0.1556 -0.0977  0.4055
  310SOL    HW1  990   4.208   0.980   2.489 -1.5704 -0.0113  0.8745
  310SOL    HW2  991   4.289   1.073   2.577  2.1980 -0.5756 -1.7356
  311SOL     OW  992   3.312   3.482   4.440  0.1567 -0.4561  0.1847
  311SOL    HW1  993   3.376   3.447   4.501  0.7828 -2.1929 -1.3551
  311SOL    HW2  994   3.361   3.495   4.359 -0.6012  1.9625  0.0356
  312SOL     OW  995   2.615   1.799   4.462  0.2311 -0.4420 -0.0403
  312SOL    HW1  996   2.548   1.855   4.423 -0.0598 -0.7899 -0.0500
  312SOL    HW2  997   2.567   1.743   4.523  0.5594 -0.4843  0.1838
  313SOL     OW  998   0.177   2.192   4.208  0.1396 -0.8064  0.5552
  313SOL    HW1  999   0.218   2.277   4.221 -0.4267 -0.5166  0.4347
  313SOL    HW2 1000   0.109   2.207   4.143 -0.8172 -1.0834  1.4729
  314SOL     OW 1001   2.929   4.052   3.008 -0.4288  0.1945  0.4130
  314SOL    HW1 1002   2.974   4.130   2.975  0.1638 -1.2524 -2.5368
  314SOL    HW2 1003   2.836   4.072   2.998 -0.2778  0.4359 -0.5732
  315SOL     OW 1004   1.882   1.894   3.629  0.1517 -0.4878 -0.6544
  315SOL    HW1 1005   1.786   1.903   3.632  0.2739  0.7333  0.5674
  315SOL    HW2 1006   1.898   1.840   3.552 -1.5368 -0.9246 -0.7585
  316SOL     OW 1007   2.620   4.994   3.803 -0.1384  0.9022 -0.2176
  316SOL    HW1 1008   2.652   4.914   3.761 -0.6784  0.0435  0.9590
  316SOL    HW2 1009   2.655   5.064   3.748 -1.2778 -0.1501 -2.4506
  317SOL     OW 1010   5.372   3.443   3.463  0.0896 -0.1680  0.4612
  317SOL    HW1 1011   5.362   3.426   3.370 -2.9542  0.5718  0.5602
  317SOL    HW2 1012   5.364   3.357   3.504 -0.1690 -0.3048  0.1293
  318SOL     OW 1013   1.869   5.120   1.076 -0.1772 -0.0399 -0.1923
  318SOL    HW1 1014   1.830   5.142   0.992 -1.3847 -0.3106  0.2786
  318SOL    HW2 1015   1.901   5.030   1.065  1.2417  0.5111 -0.8818
  319SOL     OW 1016   5.397   2.418   3.243 -0.0217 -0.5505  0.1338
  319SOL    HW1 1017   5.451   2.428   3.322 -0.5885  0.5117  0.3969
  319SOL    HW2 1018   5.308   2.406   3.276 -0.3143  0.2440 -0.3477
  320SOL     OW 1019   1.623   4.169   3.312  0.6001  0.3079  0.1652
  320SOL    HW1 1020   1.550   4.230   3.317  0.7845  0.5395  0.0760
  320SOL    HW2 1021   1.583   4.083   3.317  0.2275  0.4094 -0.8378
  321SOL     OW 1022   1.154   1.265   3.223 -0.4689  0.5958  0.8687
  321SOL    HW1 1023   1.087   1.254   3.156  0.5786  0.3413 -0.1801
  321SOL    HW2 1024   1.176   1.176   3.250 -0.2849  0.6566  0.9254
  322SOL     OW 1025   3.901   3.455   1.527 -0.0050 -0.0913 -0.3785
  322SOL    HW1 1026   3.835   3.494   1.470  0.7476  0.1523 -1.0978
  322SOL    HW2 1027   3.972   3.430   1.468  0.6723 -0.0836  0.4207
  323SOL     OW 1028   1.010   1.926   2.539  0.0445 -0.3953  0.2669
  323SOL    HW1 1029   0.923   1.887   2.549 -0.9923  0.8917 -2.5386
  323SOL    HW2 1030   1.003   2.010   2.586 -0.6803  0.2307 -0.9063
  324SOL     OW 1031   5.372   3.850   0.162 -0.3921 -0.2014  0.0378
  324SOL    HW1 1032   5.382   3.856   0.257  1.2348  1.0800 -0.1801
  324SOL    HW2 1033   5.277   3.840   0.149 -0.6779 -0.0734  1.7630
  325SOL     OW 1034   1.693   0.510   3.972 -0.2224  0.3113 -0.1309
  325SOL    HW1 1035   1.746   0.445   3.926 -0.5960  0.3093 -0.5612
  325SOL    HW2 1036   1.603   0.484   3.955 -0.3678  0.4840  0.3566
  326SOL     OW 1037   0.642   0.120   4.312  0.1239  0.7469 -0.0626
  326SOL    HW1 1038   0.716   0.077   4.271  1.1008  0.0637  2.2474
  326SOL    HW2 1039   0.599   0.052   4.364  0.0038  1.8635  1.4067
  327SOL     OW 1040   0.072   3.321   0.516 -0.8869  0.4750  0.0880
  327SOL    HW1 1041   0.000   3.333   0.454 -1.3641 -1.2229  0.2383
  327SOL    HW2 1042   0.035   3.266   0.585  0.1660  0.7584  0.9100
  328SOL     OW 1043   3.559   2.214   4.463  0.0576  0.3515  0.0411
  328SOL    HW1 1044   3.598   2.301   4.453  0.7081  0.4712  2.7925
  328SOL    HW2 1045   3.542   2.206   4.557 -4.0863 -0.7923 -0.6043
  329SOL     OW 1046   0.632   1.209   1.525  0.2636 -0.1166  0.3005
  329SOL    HW1 1047   0.579   1.214   1.605 -0.6660 -3.1329 -0.0200
  329SOL    HW2 1048   0.578   1.253   1.459 -2.0842 -3.1311 -0.0191
  330SOL     OW 1049   1.740   4.093   3.087 -0.2870  0.1748 -0.6356
  330SOL    HW1 1050   1.729   4.145   3.168  1.5616 -0.6700  0.2083
  330SOL    HW2 1051   1.799   4.146   3.033 -1.0444  0.4571 -1.2011
  331SOL     OW 1052   0.158   2.353   2.176  0.1918 -0.0957  0.8923
  331SOL    HW1 1053   0.106   2.383   2.250  0.2474  0.1542  0.8325
  331SOL    HW2 1054   0.094   2.320   2.113  0.0730  0.5509  0.6637
  332SOL     OW 1055   2.750   1.068   1.538  0.2453 -0.0705  0.1341
  332SOL    HW1 1056   2.762   1.128   1.612  1.1756 -0.7161  0.5234
  332SOL    HW2 1057   2.838   1.043   1.513 -0.1164 -0.9071 -0.3287
  333SOL     OW 1058   1.357   3.376   3.774 -0.5836  0.0427  0.2407
  333SOL    HW1 1059   1.373   3.284   3.758 -0.6938 -0.0601  0.7041
  333SOL    HW2 1060   1.313   3.407   3.695  1.4642  0.2368 -0.8798
  334SOL     OW 1061   5.048   2.741   4.423  0.7433  0.3724 -0.0876
  334SOL    HW1 1062   4.998   2.808   4.470  0.4665 -0.7501  1.2852
  334SOL    HW2 1063   4.984   2.698   4.367  0.7964  0.8505 -0.5211
  335SOL     OW 1064   4.362   3.307   2.480  0.7995 -0.1845  0.3851
  335SOL    HW1 1065   4.428   3.254   2.435  0.0655 -0.1594 -0.7786
  335SOL    HW2 1066   4.280   3.257   2.468  0.2448  0.8038 -0.0534
  336SOL     OW 1067   5.116   1.895   4.071  0.1436  0.1909  0.0964
  336SOL    HW1 1068   5.072   1.899   4.156  2.4602 -1.8199  1.5322
  336SOL    HW2 1069   5.209   1.904   4.092  0.8259 -1.0350 -2.1286
  337SOL     OW 1070   3.483   3.745   0.933  0.2721 -0.2025  0.4533
  337SOL    HW1 1071   3.487   3.655   0.900 -0.6890 -0.7751  1.8016
  337SOL    HW2 1072   3.496   3.799   0.855  0.7817 -1.4975 -0.4043
  338SOL     OW 1073   2.033   3.855   2.938 -0.7531  0.2544  0.5509
  338SOL    HW1 1074   1.985   3.788   2.987 -3.0347 -0.1323 -2.0026
  338SOL    HW2 1075   1.972   3.929   2.931  0.7497  1.6016  1.0451
  339SOL     OW 1076   2.673   3.991   3.249 -0.1533  0.3495 -0.1610
  339SOL    HW1 1077   2.648   3.910   3.205 -1.3830 -0.0251  1.1533
  339SOL    HW2 1078   2.737   3.964   3.315 -1.7144  0.1313  1.3473
  340SOL     OW 1079   1.376   2.422   3.491 -0.4515  0.4478 -0.0479
  340SOL    HW1 1080   1.372   2.403   3.397  1.2182  0.5539 -0.1648
  340SOL    HW2 1081   1.310   2.490   3.504  1.0153  2.3057 -1.6428
  341SOL     OW 1082   3.476   0.529   0.404  0.3200 -0.7442  0.3434
  341SOL    HW1 1083   3.544   0.482   0.356 -0.0679 -0.2197 -0.7343
  341SOL    HW2 1084   3.514   0.544   0.491  1.1098 -1.5056  0.1402
  342SOL     OW 1085   3.235   0.713   2.401  0.3993  0.1869  0.8807
  342SOL    HW1 1086   3.144   0.693   2.382  0.1859  1.7417  0.1361
  342SOL    HW2 1087   3.267   0.636   2.447 -1.0432 -0.7477  0.3919
  343SOL     OW 1088   2.019   0.978   2.391  0.1892 -0.1526 -0.0976
  343SOL    HW1 1089   2.005   0.949   2.301  1.5764 -2.2836  0.3032
  343SOL    HW2 1090   1.949   0.936   2.441 -0.0945  0.3723 -0.0406
  344SOL     OW 1091   2.583   0.206   2.308 -0.2977 -0.3115  0.6350
  344SOL    HW1 1092   2.638   0.269   2.355  0.0183  0.9182 -1.2771
  344SOL    HW2 1093   2.494   0.226   2.336 -0.1603  0.7201  0.3487
  345SOL     OW 1094   1.001   2.283   4.222  0.2887  0.4676  0.6114
  345SOL    HW1 1095   1.092   2.255   4.218  0.5072  1.2505 -0.6775
  345SOL    HW2 1096   0.962   2.252   4.140 -0.0119  1.9556  0.1430
  346SOL     OW 1097   3.035   1.883   3.389  0.0017 -0.0097 -0.3606
  346SOL    HW1 1098   2.959   1.927   3.428  0.2845  0.5821 -0.4635
  346SOL    HW2 1099   3.076   1.836   3.462 -0.3231 -0.1308 -0.2562
  347SOL     OW 1100   1.756   1.535   4.168  0.2784  0.1595  0.4963
  347SOL    HW1 1101   1.674   1.522   4.216 -0.0639  2.1148  0.4998
  347SOL    HW2 1102   1.794   1.447   4.163 -0.5167 -0.3900  2.8136
  348SOL     OW 1103   4.528   1.330   3.109  0.2520 -0.4791  0.1369
  348SOL    HW1 1104   4.442   1.357   3.144  0.7873 -1.2176  2.1545
  348SOL    HW2 1105   4.535   1.377   3.026 -1.8276  0.1062  0.2197
  349SOL     OW 1106   1.281   2.671   0.978 -0.0098 -0.5854  0.1930
  349SOL    HW1 1107   1.253   2.677   0.887  1.8471 -1.0064 -0.4684
  349SOL    HW2 1108   1.275   2.760   1.011  0.8779 -0.0904 -0.8956
  350SOL     OW 1109   0.984   1.670   2.224  0.4602  0.4769 -0.0597
  350SOL    HW1 1110   1.007   1.756   2.259 -0.0365  1.0362 -1.0623
  350SOL    HW2 1111   1.044   1.656   2.151  0.9559 -0.3141  0.4897
  351SOL     OW 1112   2.979   2.907   3.891  0.4616 -0.1484  0.0973
  351SOL    HW1 1113   2.940   2.977   3.838 -1.8974 -0.8971  0.6969
  351SOL    HW2 1114   3.011   2.844   3.827 -0.1169  0.1093 -0.4599
  352SOL     OW 1115   0.857   2.657   0.534 -0.2943  0.0803  0.1725
  352SOL    HW1 1116   0.814   2.587   0.484 -0.6869 -0.5561  1.3626
  352SOL    HW2 1117   0.828   2.643   0.624  1.9357 -0.0104  0.9349
  353SOL     OW 1118   1.103   0.148   1.749  0.4366  1.1341 -0.3089
  353SOL    HW1 1119   1.076   0.219   1.691  1.2560  0.7230 -1.2313
  353SOL    HW2 1120   1.199   0.150   1.747  0.4913  1.0501  0.9752
  354SOL     OW 1121   0.123   2.100   3.345 -0.1298 -0.5070 -0.1922
  354SOL    HW1 1122   0.217   2.084   3.348  0.0504  0.3919 -0.7342
  354SOL    HW2 1123   0.109   2.172   3.406 -0.3483 -0.0781 -0.7497
  355SOL     OW 1124   3.939   4.166   2.622 -0.0884  0.2537  0.6761
  355SOL    HW1 1125   3.941   4.073   2.600  0.4951  0.2758  0.6135
  355SOL    HW2 1126   3.855   4.197   2.589  0.4192  0.1159 -0.8116
  356SOL     OW 1127   4.441   3.809   2.720  0.3297  0.3107 -0.1590
  356SOL    HW1 1128   4.481   3.811   2.633  1.6030 -0.8537  0.3687
  356SOL    HW2 1129   4.393   3.726   2.723  0.7479  0.0856  0.4375
  357SOL     OW 1130   3.933   3.611   4.017  0.9422 -0.6077  0.1435
  357SOL    HW1 1131   3.950   3.672   4.088  0.2628 -0.0189 -0.1743
  357SOL    HW2 1132   3.936   3.524   4.057 -1.2717 -0.2133  1.3074
  358SOL     OW 1133   4.799   2.132   0.054 -0.3000  0.5919  0.0244
  358SOL    HW1 1134   4.864   2.158   0.120 -1.0266 -0.7309  1.3241
  358SOL    HW2 1135   4.805   2.199  -0.014  1.9989  0.8394  0.3931
  359SOL     OW 1136   0.271   3.502   0.931 -0.0885  0.3676  0.1444
  359SOL    HW1 1137   0.259   3.430   0.993  1.0537  0.1707  0.1687
  359SOL    HW2 1138   0.362   3.493   0.902 -0.3134  1.0348 -0.8317
  360SOL     OW 1139   4.683   1.582   0.298  0.2708  0.3004 -0.2795
  360SOL    HW1 1140   4.602   1.605   0.343  1.1419  1.2581  0.8585
  360SOL    HW2 1141   4.672   1.619   0.210 -0.3881  0.7102 -0.0338
  361SOL     OW 1142   1.242   1.427   1.596 -0.1583 -0.5073 -0.4688
  361SOL    HW1 1143   1.299   1.503   1.602  0.1234 -0.7316 -0.2993
  361SOL    HW2 1144   1.189   1.442   1.517  0.5185 -0.5635 -0.9390
  362SOL     OW 1145   2.287   0.381   0.438 -0.5886 -0.2948  0.4395
  362SOL    HW1 1146   2.370   0.398   0.483 -0.5568 -0.0854  0.3034
  362SOL    HW2 1147   2.229   0.347   0.506 -0.2700 -0.8230  0.4538
  363SOL     OW 1148   0.186   3.640   3.297  0.6532 -0.1345 -0.0672
  363SOL    HW1 1149   0.163   3.575   3.364 -0.5253  0.1394 -0.1771
  363SOL    HW2 1150   0.207   3.588   3.220 -2.3416 -0.4549 -0.8182
  364SOL     OW 1151   1.173   4.155   2.151 -0.0531  0.1213 -0.1322
  364SOL    HW1 1152   1.196   4.237   2.106  0.8420  0.1043  0.2567
  364SOL    HW2 1153   1.145   4.183   2.238 -1.6201  0.1424 -0.6266
  365SOL     OW 1154   3.978   4.039   1.302  0.1529  0.4522  0.9375
  365SOL    HW1 1155   4.042   4.102   1.336 -0.9097  0.5706  2.9015
  365SOL    HW2 1156   3.894   4.086   1.305 -0.4701 -0.6341  1.2105
  366SOL     OW 1157   5.061   1.070   2.975  0.0035  0.2633 -0.0824
  366SOL    HW1 1158   5.078   1.063   2.881  0.4096 -1.2325  0.0735
  366SOL    HW2 1159   5.148   1.073   3.015 -0.1631  1.5760  0.2264
  367SOL     OW 1160   1.129   1.057   4.327  0.7116  0.1338 -0.0722
  367SOL    HW1 1161   1.050   1.005   4.345  1.5037 -1.4094 -0.8139
  367SOL    HW2 1162   1.097   1.133   4.279 -0.4270  0.0495  0.5075
  368SOL     OW 1163   3.426   0.141   3.900  0.2223 -0.4202 -0.2761
  368SOL    HW1 1164   3.422   0.187   3.984 -2.6752  0.9128 -1.0065
  368SOL    HW2 1165   3.363   0.188   3.845  0.9471 -2.1710 -2.7308
  369SOL     OW 1166   0.740   3.200   1.681  0.2645 -0.0826  0.4424
  369SOL    HW1 1167   0.834   3.188   1.679  0.3677  0.1559  2.3056
  369SOL    HW2 1168   0.728   3.288   1.717 -0.6583 -1.3310  3.4716
  370SOL     OW 1169   3.161   0.355   2.108  0.2452  0.2190  0.3246
  370SOL    HW1 1170   3.248   0.386   2.087  0.1682 -0.9029 -1.8938
  370SOL    HW2 1171   3.153   0.272   2.062 -1.8957  0.1444  0.7162
  371SOL     OW 1172   2.791   4.618   0.099  0.5918 -0.1711 -0.2906
  371SOL    HW1 1173   2.845   4.639   0.024 -0.2854 -0.0555 -0.9075
  371SOL    HW2 1174   2.704   4.600   0.062  0.0816  0.1374  0.7085
  372SOL     OW 1175   1.409   4.524   0.450 -0.1633  0.3070 -0.3851
  372SOL    HW1 1176   1.441   4.440   0.483 -0.1623  0.5641  0.2905
  372SOL    HW2 1177   1.348   4.501   0.381  0.0804 -0.2429 -0.4264
  373SOL     OW 1178   0.365   4.291   0.097 -0.0564  0.5276  0.0303
  373SOL    HW1 1179   0.289   4.267   0.044 -0.4594 -1.8860  1.5500
  373SOL    HW2 1180   0.346   4.378   0.129 -1.1621  0.8315 -1.3589
  374SOL     OW 1181   5.200   4.282   2.015  0.0795 -0.7422  0.1564
  374SOL    HW1 1182   5.270   4.345   1.999  0.5158 -1.3743 -0.4697
  374SOL    HW2 1183   5.133   4.302   1.950 -0.3621 -0.0904  0.8029
  375SOL     OW 1184   4.881   0.461   1.947  0.2707  0.2468  0.1085
  375SOL    HW1 1185   4.935   0.458   1.868 -1.8156  0.9248 -1.4710
  375SOL    HW2 1186   4.914   0.390   2.002  0.5090 -1.6576 -2.3187
  376SOL     OW 1187   2.493   3.621   1.975  0.3360  0.3168 -0.0887
  376SOL    HW1 1188   2.536   3.641   1.893  0.3827 -0.9634 -0.4064
  376SOL    HW2 1189   2.399   3.628   1.956  0.3323 -0.4317 -0.4019
  377SOL     OW 1190   4.233   0.476   0.771 -0.2426 -0.0312  0.2251
  377SOL    HW1 1191   4.193   0.554   0.810 -0.0129  1.0442 -1.6021
  377SOL    HW2 1192   4.169   0.445   0.708  0.7456  0.2709 -0.9625
  378SOL     OW 1193   4.454   0.735   2.206  0.1197 -0.2007  0.1280
  378SOL    HW1 1194   4.495   0.696   2.284 -2.1143 -1.4656  0.7416
  378SOL    HW2 1195   4.508   0.704   2.133  0.9478 -0.8162  0.9747
  379SOL     OW 1196   4.588   0.185   1.350  0.1857 -0.0139 -0.7501
  379SOL    HW1 1197   4.613   0.147   1.266  0.4892  2.0633 -1.6684
  379SOL    HW2 1198   4.670   0.188   1.400 -0.1611 -2.0901  0.0313
  380SOL     OW 1199   1.283   1.851   3.745 -0.1854  0.4056  0.2032
  380SOL    HW1 1200   1.328   1.917   3.799 -1.3985 -0.0176  1.8138
  380SOL    HW2 1201   1.344   1.777   3.743 -0.0736  0.4733  0.9102
  381SOL     OW 1202   0.581   3.971   2.430 -0.3202  0.3023  0.2500
  381SOL    HW1 1203   0.620   4.044   2.382 -1.1031  0.5114 -0.0748
  381SOL    HW2 1204   0.648   3.903   2.428 -0.0986  0.5320 -0.6035
  382SOL     OW 1205   4.411   4.067   2.629  0.2773 -0.2603  0.2600
  382SOL    HW1 1206   4.412   3.983   2.674  0.6753 -0.2413  0.2958
  382SOL    HW2 1207   4.333   4.111   2.660  0.1594 -0.5482  0.3713
  383SOL     OW 1208   0.958   4.887   0.255 -0.2352 -0.2548 -0.0693
  383SOL    HW1 1209   0.913   4.961   0.296 -0.3586 -0.2698 -0.1781
  383SOL    HW2 1210   0.888   4.836   0.215 -0.0922 -0.1136 -0.5056
  384SOL     OW 1211   3.193   4.520   0.490  0.0225 -0.1053  0.0618
  384SOL    HW1 1212   3.133   4.446   0.491  0.5824 -0.5762  0.9644
  384SOL    HW2 1213   3.201   4.544   0.398 -0.5696 -0.8327 -0.1862
  385SOL     OW 1214   5.225   4.419   0.677 -0.2626 -0.3204 -0.0376
  385SOL    HW1 1215   5.200   4.360   0.748 -0.3418 -2.7521 -1.9827
  385SOL    HW2 1216   5.163   4.400   0.607  0.3161  1.4416 -1.0904
  386SOL     OW 1217   5.009   4.080   0.375  0.5643  0.1463  0.3394
  386SOL    HW1 1218   5.034   4.001   0.327  0.1585  0.5796 -0.6110
  386SOL    HW2 1219   4.994   4.050   0.465 -1.3460 -1.2241 -0.3676
  387SOL     OW 1220   4.531   1.799   3.665 -0.2762  0.0703 -0.2529
  387SOL    HW1 1221   4.612   1.748   3.670 -0.9333 -0.9107  1.2535
  387SOL    HW2 1222   4.473   1.757   3.728 -0.9610  2.5527  0.8672
  388SOL     OW 1223   3.296   0.943   2.063 -0.0538 -0.0356 -0.3055
  388SOL    HW1 1224   3.229   0.890   2.018  0.0332 -1.2246  0.8997
  388SOL    HW2 1225   3.323   1.008   1.998  1.1409 -2.5824 -2.5547
  389SOL     OW 1226   2.585   3.903   1.267 -0.3398 -0.3865  0.0806
  389SOL    HW1 1227   2.497   3.880   1.297 -0.2642 -0.1042  0.5318
  389SOL    HW2 1228   2.590   3.998   1.278 -0.1624 -0.3354 -0.4400
  390SOL     OW 1229   1.384   2.105   1.627  0.0825 -0.6073  0.0841
  390SOL    HW1 1230   1.473   2.123   1.599  1.0745 -1.6442  2.3707
  390SOL    HW2 1231   1.353   2.036   1.567  1.0715 -0.7428 -0.2812
  391SOL     OW 1232   3.961   1.388   3.264  0.0425 -0.1016  0.4125
  391SOL    HW1 1233   3.978   1.434   3.346  0.2677  0.0069  0.3062
  391SOL    HW2 1234   3.940   1.458   3.202 -1.1356 -0.2496  0.6171
  392SOL     OW 1235   3.990   4.154   3.097  0.0983  0.1044 -0.0277
  392SOL    HW1 1236   3.898   4.148   3.121 -0.2731  1.6080 -0.9217
  392SOL    HW2 1237   3.994   4.228   3.035  2.4178  2.6353  2.7905
  393SOL     OW 1238   4.539   1.504   2.889  0.4458 -0.1829  0.7200
  393SOL    HW1 1239   4.458   1.520   2.840  1.7382 -0.2120 -1.5733
  393SOL    HW2 1240   4.593   1.581   2.871  1.4449 -0.7844  1.0855
  394SOL     OW 1241   0.526   0.923   1.709 -0.2486  0.7040 -0.9916
  394SOL    HW1 1242   0.467   0.996   1.729 -0.6320  0.4906 -1.3279
  394SOL    HW2 1243   0.572   0.907   1.791 -0.6528  0.8792 -0.7266
  395SOL     OW 1244   3.907   1.947   1.922 -0.6718 -0.6319  0.2670
  395SOL    HW1 1245   3.929   2.003   1.848 -1.0594  0.1652  0.7396
  395SOL    HW2 1246   3.848   1.881   1.886 -0.8080 -0.2895 -0.1434
  396SOL     OW 1247   1.356   4.144   0.701 -0.6751  0.7681  0.2053
  396SOL    HW1 1248   1.413   4.207   0.745  0.6661  0.1536 -0.5767
  396SOL    HW2 1249   1.306   4.196   0.639 -1.4367  1.4109  1.3298
  397SOL     OW 1250   3.203   0.278   3.065  0.1223 -0.8410 -0.5638
  397SOL    HW1 1251   3.299   0.270   3.063  0.0777 -1.3993 -1.2289
  397SOL    HW2 1252   3.187   0.371   3.078  0.7739 -0.5497 -1.6446
  398SOL     OW 1253   0.672   2.427   0.604 -0.1367  0.3923 -0.2977
  398SOL    HW1 1254   0.626   2.506   0.575  0.9620  1.1046 -0.1567
  398SOL    HW2 1255   0.642   2.413   0.694 -0.7837  0.2851 -0.5182
  399SOL     OW 1256   4.093   2.192   0.405 -0.6057  0.1040 -0.1263
  399SOL    HW1 1257   4.079   2.284   0.383  0.8101 -0.2045 -2.6669
  399SOL    HW2 1258   4.040   2.144   0.340 -1.9861 -0.9391  1.6622
  400SOL     OW 1259   1.910   2.425   1.157 -0.3579 -0.0568  0.2026
  400SOL    HW1 1260   2.002   2.444   1.139  0.2797 -1.4419  1.7099
  400SOL    HW2 1261   1.909   2.332   1.180 -2.0936  0.0126  0.5270
  401SOL     OW 1262   4.556   2.660   0.827  0.6084  0.0075  0.1542
  401SOL    HW1 1263   4.489   2.611   0.779  1.3323 -1.1562  0.3137
  401SOL    HW2 1264   4.631   2.662   0.769  0.8732  0.2079  0.4976
  402SOL     OW 1265   5.082   1.039   2.694  0.7427 -0.7238  0.1255
  402SOL    HW1 1266   5.148   0.996   2.639  0.2621 -1.5457  0.1875
  402SOL    HW2 1267   5.012   0.975   2.703 -0.6299  0.5615 -0.9319
  403SOL     OW 1268   1.419   1.188   0.072  0.1020  0.1859  0.7647
  403SOL    HW1 1269   1.403   1.246  -0.003 -0.2002 -1.2260 -0.3085
  403SOL    HW2 1270   1.497   1.224   0.113 -0.9518  2.2695  1.0967
  404SOL     OW 1271   1.207   0.713   1.529 -0.0715  0.3457  0.5871
  404SOL    HW1 1272   1.228   0.753   1.445  0.3112 -0.3330  0.3574
  404SOL    HW2 1273   1.125   0.755   1.556  0.4255  1.4471  0.4584
  405SOL     OW 1274   1.630   1.123   1.786  0.3370 -0.1059 -0.1904
  405SOL    HW1 1275   1.714   1.145   1.827  0.3032 -1.0233  0.4025
  405SOL    HW2 1276   1.571   1.192   1.814  0.7491  0.2303 -0.1328
  406SOL     OW 1277   2.365   3.096   2.118 -0.2911  0.0428  0.0129
  406SOL    HW1 1278   2.329   3.122   2.203 -0.6398  2.0992 -0.7114
  406SOL    HW2 1279   2.419   3.170   2.091  0.5716 -0.9708 -1.1589
  407SOL     OW 1280   0.643   4.737   4.416  0.0887 -0.2511 -0.2721
  407SOL    HW1 1281   0.642   4.696   4.330  1.9517 -0.2482 -0.3399
  407SOL    HW2 1282   0.569   4.797   4.416  0.8853  0.8398 -2.4538
  408SOL     OW 1283   2.638   0.176   3.182 -0.0687  0.1602 -0.3843
  408SOL    HW1 1284   2.690   0.256   3.174  1.1870 -0.7559 -2.0024
  408SOL    HW2 1285   2.702   0.106   3.194 -1.0375 -0.7876 -0.4853
  409SOL     OW 1286   0.792   3.790   2.480  0.6625  0.0649  0.1601
  409SOL    HW1 1287   0.743   3.714   2.511 -0.1084  0.4034 -0.1869
  409SOL    HW2 1288   0.859   3.804   2.547 -0.2470  0.1022  1.0969
  410SOL     OW 1289   0.466   4.773   3.528 -0.6297 -0.2551  0.1360
  410SOL    HW1 1290   0.481   4.680   3.515 -1.7410 -0.3804 -0.3884
  410SOL    HW2 1291   0.394   4.795   3.468 -1.3375  0.6165  1.2486
  411SOL     OW 1292   4.170   4.205   1.426  0.1392  0.0825 -0.3016
  411SOL    HW1 1293   4.153   4.289   1.470 -0.1311 -1.0990  2.0184
  411SOL    HW2 1294   4.211   4.151   1.493 -0.9743 -2.1015 -1.2748
  412SOL     OW 1295   3.062   3.342   4.427 -0.4309  0.2609 -0.5031
  412SOL    HW1 1296   2.997   3.403   4.462  0.6967  2.0064 -1.2572
  412SOL    HW2 1297   3.137   3.398   4.407 -0.1424 -0.9681 -3.3766
  413SOL     OW 1298   5.457   0.528   2.080 -0.3340  0.4518 -0.1880
  413SOL    HW1 1299   5.435   0.603   2.135 -0.7984  0.7967 -0.8288
  413SOL    HW2 1300   5.546   0.504   2.106 -0.8541  0.0487  1.3255
  414SOL     OW 1301   2.715   2.126   2.161 -0.5839  0.6488  0.1705
  414SOL    HW1 1302   2.634   2.089   2.126 -0.2789 -0.6168  0.7224
  414SOL    HW2 1303   2.707   2.220   2.148 -1.0499  0.3515 -2.0469
  415SOL     OW 1304   4.828   5.036   3.696  0.0270 -0.3679  0.3816
  415SOL    HW1 1305   4.799   5.118   3.657 -1.0020 -1.1182 -0.5171
  415SOL    HW2 1306   4.875   4.991   3.625 -1.6046 -1.6189  0.0177
  416SOL     OW 1307   4.989   0.693   1.253 -0.2967  0.3470 -0.2136
  416SOL    HW1 1308   4.985   0.648   1.169  0.4318  0.2452 -0.2012
  416SOL    HW2 1309   4.953   0.780   1.235  0.6573  0.6310 -0.8510
  417SOL     OW 1310   0.762   1.068   0.963 -0.0253  0.1277  0.4961
  417SOL    HW1 1311   0.750   1.126   0.888 -0.4549 -2.6265 -1.7096
  417SOL    HW2 1312   0.699   1.100   1.028  0.7983  2.9770  0.0178
  418SOL     OW 1313   1.466   0.063   4.031 -0.3782 -0.2672 -0.2599
  418SOL    HW1 1314   1.438   0.092   4.118  1.7963 -0.3765  0.5504
  418SOL    HW2 1315   1.467   0.143   3.978  0.0085  0.1285  0.3338
  419SOL     OW 1316   5.083   2.458   2.083 -0.0557 -0.2013  0.9851
  419SOL    HW1 1317   5.076   2.363   2.097 -1.8470  0.2212  3.6004
  419SOL    HW2 1318   5.150   2.487   2.144 -0.0821  0.3411  0.7644
  420SOL     OW 1319   2.485   3.093   4.388  0.6645 -0.3008  0.0736
  420SOL    HW1 1320   2.445   3.128   4.308  1.2304 -0.1343 -0.1377
  420SOL    HW2 1321   2.514   3.005   4.364  0.5798 -0.3596  0.1820
  421SOL     OW 1322   3.190   5.089   0.361  0.1267  0.1694  0.0555
  421SOL    HW1 1323   3.166   5.049   0.277  0.8930  0.4508 -0.3109
  421SOL    HW2 1324   3.203   5.015   0.420  0.4333 -0.0785 -0.3157
  422SOL     OW 1325   5.238   1.079   0.695 -0.6211 -0.0931 -0.2519
  422SOL    HW1 1326   5.240   1.115   0.607 -1.2662 -0.3739 -0.3864
  422SOL    HW2 1327   5.330   1.078   0.723 -0.6279  2.2946  0.0361
  423SOL     OW 1328   4.790   2.016   1.279 -0.0688 -0.0620  0.2612
  423SOL    HW1 1329   4.844   2.074   1.333 -0.4358  0.2892  0.2591
  423SOL    HW2 1330   4.810   2.041   1.189  0.3781 -0.4970  0.2364
  424SOL     OW 1331   0.684   1.920   0.650  0.4714 -0.4228 -0.1276
  424SOL    HW1 1332   0.637   1.955   0.574 -0.5205  1.1126  1.1056
  424SOL    HW2 1333   0.641   1.837   0.670 -1.1835  0.5044  0.3945
  425SOL     OW 1334   4.222   1.648   2.980 -0.9817 -0.1996 -0.0647
  425SOL    HW1 1335   4.291   1.710   2.955 -3.7004  2.7869 -0.8246
  425SOL    HW2 1336   4.201   1.603   2.899 -0.2126 -0.8745  0.0958
  426SOL     OW 1337   5.248   0.367   1.025  0.2114 -0.3693  0.1480
  426SOL    HW1 1338   5.205   0.290   0.988 -0.2236 -0.4003  0.6914
  426SOL    HW2 1339   5.335   0.368   0.987 -0.1549 -0.5049 -0.7191
  427SOL     OW 1340   1.548   3.439   0.747 -0.4016  0.0038  1.0060
  427SOL    HW1 1341   1.532   3.495   0.671  1.6791  0.7031  1.0098
  427SOL    HW2 1342   1.483   3.370   0.741 -0.8853  0.5771 -0.8872
  428SOL     OW 1343   1.914   2.240   3.716  0.3141  0.2387  0.4384
  428SOL    HW1 1344   1.864   2.171   3.672  1.6689  0.1634 -1.0647
  428SOL    HW2 1345   1.898   2.318   3.664  0.9848  0.4304  0.5122
  429SOL     OW 1346   4.256   2.567   3.447  0.1268  0.2921 -0.7150
  429SOL    HW1 1347   4.254   2.622   3.524  1.5821  0.2538 -0.6095
  429SOL    HW2 1348   4.276   2.627   3.375  1.7349 -0.0487 -0.5961
  430SOL     OW 1349   3.343   4.455   2.375  0.5845  0.4727 -0.2008
  430SOL    HW1 1350   3.388   4.377   2.406 -1.2882 -0.1836  1.0690
  430SOL    HW2 1351   3.251   4.428   2.369  0.2002  1.9494 -1.9361
  431SOL     OW 1352   4.001   1.329   1.628  0.1120 -0.2547  1.1227
  431SOL    HW1 1353   4.055   1.255   1.600  2.2514  1.6817 -0.2461
  431SOL    HW2 1354   3.934   1.337   1.560  0.6154 -0.2137  0.6269
  432SOL     OW 1355   2.205   2.501   0.587 -0.6684  0.3370 -0.6007
  432SOL    HW1 1356   2.217   2.412   0.556 -0.0133  0.6628 -1.3231
  432SOL    HW2 1357   2.257   2.506   0.667 -0.1741  0.2440 -0.9094
  433SOL     OW 1358   5.106   1.427   3.360 -0.2184  0.4656 -0.0088
  433SOL    HW1 1359   5.178   1.480   3.326 -0.1700 -0.3705 -1.2703
  433SOL    HW2 1360   5.051   1.409   3.284 -0.9395 -0.1952  0.6525
  434SOL     OW 1361   2.483   1.968   2.081  0.6210  0.3226 -0.0982
  434SOL    HW1 1362   2.451   2.007   2.000  0.0502  0.4954  0.2040
  434SOL    HW2 1363   2.512   1.880   2.055 -2.0154 -0.6669 -0.0695
  435SOL     OW 1364   0.383   3.870   1.014  0.1193  0.0543  0.1433
  435SOL    HW1 1365   0.478   3.858   1.012 -0.0709 -1.5809 -0.6560
  435SOL    HW2 1366   0.351   3.823   0.937 -1.3692  0.3729  0.5255
  436SOL     OW 1367   2.558   0.436   2.989 -0.1151 -0.5119 -0.2927
  436SOL    HW1 1368   2.552   0.366   3.054 -0.6702 -2.2636 -2.1091
  436SOL    HW2 1369   2.631   0.411   2.933  0.4165  1.0117 -0.3299
  437SOL     OW 1370   4.008   3.487   4.288  0.4858 -0.0211 -0.0665
  437SOL    HW1 1371   4.093   3.444   4.296  0.5445  0.0063 -0.5179
  437SOL    HW2 1372   3.945   3.416   4.296  0.5631 -0.1035 -0.1993
  438SOL     OW 1373   2.113   5.028   1.446  0.0866 -0.6167  0.2159
  438SOL    HW1 1374   2.141   4.954   1.392 -0.8881 -1.9312  1.4147
  438SOL    HW2 1375   2.142   5.006   1.534 -1.4583 -0.2906  0.8432
  439SOL     OW 1376   0.558   0.393   0.512 -0.7785  0.1717  0.2449
  439SOL    HW1 1377   0.548   0.347   0.595  0.5397 -0.1256  0.2561
  439SOL    HW2 1378   0.652   0.410   0.505 -1.0481  1.5341 -0.4750
  440SOL     OW 1379   0.575   4.341   2.538 -0.7714 -0.2224 -0.1358
  440SOL    HW1 1380   0.522   4.413   2.572 -1.6737 -1.4941  1.3267
  440SOL    HW2 1381   0.657   4.345   2.587 -0.6028  0.1366 -0.4486
  441SOL     OW 1382   2.880   3.157   4.320 -0.6423 -0.3823  0.0945
  441SOL    HW1 1383   2.955   3.215   4.332 -2.2552  1.5366  1.4705
  441SOL    HW2 1384   2.852   3.173   4.229 -0.6845  0.5484  0.2606
  442SOL     OW 1385   2.160   2.662   3.766  0.5528  0.0427  0.4913
  442SOL    HW1 1386   2.079   2.700   3.801  0.4722  0.9313 -0.6121
  442SOL    HW2 1387   2.208   2.632   3.844 -1.6302 -2.2592  1.1067
  443SOL     OW 1388   0.086   0.025   0.525  0.7882 -0.5347  0.0727
  443SOL    HW1 1389   0.103   0.116   0.501 -0.4364 -0.6339 -1.3518
  443SOL    HW2 1390   0.111   0.019   0.617  1.6772  1.0162 -0.0355
  444SOL     OW 1391   3.236   2.057   3.343 -0.3936 -0.6527  0.3384
  444SOL    HW1 1392   3.242   2.091   3.433 -1.4409  0.7081 -0.0766
  444SOL    HW2 1393   3.166   1.991   3.348 -0.5105 -0.5198  0.5114
  445SOL     OW 1394   3.637   0.465   0.142  0.4337 -0.3069 -0.0488
  445SOL    HW1 1395   3.592   0.455   0.058  0.6464 -2.8051  0.0630
  445SOL    HW2 1396   3.660   0.558   0.146 -1.7811  0.3845 -1.5886
  446SOL     OW 1397   1.785   3.322   2.259 -0.4724  0.3771  0.2657
  446SOL    HW1 1398   1.775   3.319   2.164 -0.4397 -1.1114  0.2900
  446SOL    HW2 1399   1.825   3.407   2.276 -0.6422  0.7383 -1.0286
  447SOL     OW 1400   5.217   4.752   0.030  0.1527 -0.2270  0.7945
  447SOL    HW1 1401   5.141   4.707  -0.006  0.6354 -0.8711  0.5559
  447SOL    HW2 1402   5.207   4.843   0.002 -3.0808  0.9533  4.7695
  448SOL     OW 1403   1.018   2.337   3.216 -0.1997  0.0788 -0.1410
  448SOL    HW1 1404   1.107   2.321   3.248 -1.0099 -1.1351  1.7119
  448SOL    HW2 1405   0.967   2.356   3.296 -1.8856 -0.7312 -0.9568
  449SOL     OW 1406   0.671   0.611   3.235 -0.1711  0.2765 -0.1991
  449SOL    HW1 1407   0.637   0.689   3.278 -0.6718 -0.3599  0.5697
  449SOL    HW2 1408   0.686   0.549   3.306  1.7657  0.2181 -0.6058
  450SOL     OW 1409   1.340   2.861   4.020  0.5181 -0.2752 -0.2212
  450SOL    HW1 1410   1.346   2.766   4.027  1.0297 -0.2404 -0.1626
  450SOL    HW2 1411   1.357   2.894   4.108  1.1772 -0.0948 -0.4140
  451SOL     OW 1412   0.115   1.803   3.052  0.0445 -0.4989 -0.1830
  451SOL    HW1 1413   0.193   1.856   3.070 -0.1592 -0.7370  1.5743
  451SOL    HW2 1414   0.047   1.868   3.034  0.2292 -0.2254  0.0860
  452SOL     OW 1415   4.199   2.745   2.070  0.5894  0.2693 -0.3394
  452SOL    HW1 1416   4.257   2.670   2.074  0.1898 -0.0540 -0.4853
  452SOL    HW2 1417   4.135   2.722   2.002 -0.2551  0.2150  0.4518
  453SOL     OW 1418   0.713   2.854   1.366  0.0035 -0.5425 -0.1595
  453SOL    HW1 1419   0.777   2.800   1.320  0.1533 -0.4979 -0.0020
  453SOL    HW2 1420   0.696   2.808   1.448  0.3540 -0.1998  0.1070
  454SOL     OW 1421   4.193   3.240   3.958  0.0716 -0.0514 -0.1629
  454SOL    HW1 1422   4.256   3.199   4.017  0.6003  2.3028  1.0231
  454SOL    HW2 1423   4.246   3.292   3.899 -0.6601  1.8512  0.7584
  455SOL     OW 1424   3.494   3.991   2.710  0.0853 -0.2295  0.2520
  455SOL    HW1 1425   3.561   3.951   2.656  0.0123  0.4459 -0.3554
  455SOL    HW2 1426   3.539   4.011   2.793  0.7777  0.6673 -0.3233
  456SOL     OW 1427   2.237   1.812   0.525  0.2532  0.1989  0.1260
  456SOL    HW1 1428   2.189   1.839   0.603  0.6586  1.3422 -0.0078
  456SOL    HW2 1429   2.213   1.877   0.458  0.8556 -0.0619 -0.3561
  457SOL     OW 1430   4.579   4.593   0.796 -0.0912  0.1915 -0.0812
  457SOL    HW1 1431   4.539   4.510   0.821 -0.8040  0.3748 -0.5747
  457SOL    HW2 1432   4.515   4.635   0.738  1.0179  0.2472 -1.3488
  458SOL     OW 1433   4.291   2.774   2.447 -0.4171  0.1032 -0.9471
  458SOL    HW1 1434   4.254   2.688   2.467 -1.1108  0.8742  1.3693
  458SOL    HW2 1435   4.219   2.822   2.406 -1.0909  0.5751  0.6963
  459SOL     OW 1436   3.523   1.502   2.597 -0.0206  0.3041 -0.1241
  459SOL    HW1 1437   3.430   1.503   2.621  0.2112 -2.3322  1.3283
  459SOL    HW2 1438   3.569   1.514   2.680  0.9359  0.0281 -0.6013
  460SOL     OW 1439   4.921   1.385   4.128 -0.2195 -0.7119 -0.1798
  460SOL    HW1 1440   4.843   1.334   4.108 -1.4831  0.6147  1.1645
  460SOL    HW2 1441   4.990   1.319   4.139 -1.7582 -2.1605  1.3341
  461SOL     OW 1442   2.270   3.518   1.835 -0.2824 -0.5932  0.1011
  461SOL    HW1 1443   2.182   3.490   1.810 -0.0395 -0.7373 -0.6098
  461SOL    HW2 1444   2.328   3.471   1.775  0.1423  1.3203 -1.0731
  462SOL     OW 1445   3.757   3.736   0.048 -0.5957 -0.1752  0.0074
  462SOL    HW1 1446   3.819   3.802   0.017 -0.2101 -0.2799  0.5525
  462SOL    HW2 1447   3.806   3.653   0.043 -1.2724 -0.5322 -1.2771
  463SOL     OW 1448   2.628   4.189   1.256  0.3430  0.2329  0.4452
  463SOL    HW1 1449   2.614   4.265   1.313  0.1717  0.0920  0.5907
  463SOL    HW2 1450   2.710   4.209   1.211  0.0603  0.7242  0.1350
  464SOL     OW 1451   3.520   2.582   4.132  0.2177  0.5147 -0.3062
  464SOL    HW1 1452   3.612   2.566   4.154  0.2430  1.1094  0.0495
  464SOL    HW2 1453   3.476   2.499   4.150  0.7112  0.1752 -0.6415
  465SOL     OW 1454   1.396   4.672   0.946 -0.8288  0.6781  0.4735
  465SOL    HW1 1455   1.411   4.589   0.992 -0.2197 -0.0356 -0.9565
  465SOL    HW2 1456   1.386   4.736   1.016  0.8898 -0.2193  1.6190
  466SOL     OW 1457   2.434   5.133   3.136  0.2865 -0.0504  0.1941
  466SOL    HW1 1458   2.415   5.071   3.207  2.1783 -1.8558 -0.7718
  466SOL    HW2 1459   2.512   5.180   3.165  1.0423 -0.7650 -0.6364
  467SOL     OW 1460   1.849   4.212   3.749  0.2607  0.3571  0.3683
  467SOL    HW1 1461   1.886   4.127   3.728 -0.8307 -0.6859  2.3927
  467SOL    HW2 1462   1.898   4.242   3.825  0.4725  1.4464 -0.1749
  468SOL     OW 1463   3.561   3.384   1.285  0.2511 -0.4602  0.0035
  468SOL    HW1 1464   3.468   3.400   1.304 -0.1753  0.4496 -2.4515
  468SOL    HW2 1465   3.568   3.289   1.281 -0.9851 -0.5381 -1.2909
  469SOL     OW 1466   4.939   2.017   3.338  0.0358 -0.2431 -0.3451
  469SOL    HW1 1467   4.865   2.050   3.287  0.7551 -0.6164 -1.6555
  469SOL    HW2 1468   4.994   2.093   3.354  0.3755 -0.3221 -1.1103
  470SOL     OW 1469   1.692   1.093   3.478 -0.2545  0.3355  0.6910
  470SOL    HW1 1470   1.784   1.087   3.500 -0.2054  0.1001  0.4283
  470SOL    HW2 1471   1.665   1.003   3.462  0.0168  0.5596 -1.3823
  471SOL     OW 1472   5.045   3.906   1.147  0.2656 -0.0331 -0.5834
  471SOL    HW1 1473   5.001   3.842   1.090  0.3814 -0.4326 -0.2339
  471SOL    HW2 1474   5.123   3.860   1.178 -1.3226 -1.0332  2.3768
  472SOL     OW 1475   4.555   2.178   3.316  0.5165  0.5254 -0.0091
  472SOL    HW1 1476   4.570   2.245   3.250  0.5604  2.4560  1.8602
  472SOL    HW2 1477   4.627   2.189   3.379  0.3813 -1.1172  0.4844
  473SOL     OW 1478   0.790   1.858   3.985 -0.0382  0.4031 -0.0791
  473SOL    HW1 1479   0.702   1.822   3.993 -0.5222  1.5612 -0.1511
  473SOL    HW2 1480   0.780   1.939   3.936  1.0634  0.5743 -0.0615
  474SOL     OW 1481   4.504   2.242   1.859  0.4059  0.0201 -0.3950
  474SOL    HW1 1482   4.562   2.241   1.935  0.8176 -0.1457 -0.7078
  474SOL    HW2 1483   4.416   2.251   1.896  0.7127  1.6357  0.0427
  475SOL     OW 1484   3.565   5.082   4.042 -0.2976  0.1308  0.7114
  475SOL    HW1 1485   3.606   5.062   3.958 -1.1458 -2.8995  0.9053
  475SOL    HW2 1486   3.487   5.133   4.020  0.0418  0.2648 -0.2193
  476SOL     OW 1487   2.019   4.432   3.191  0.3673  0.3861 -0.2719
  476SOL    HW1 1488   1.977   4.516   3.205 -0.8846  0.1382 -2.1437
  476SOL    HW2 1489   2.068   4.443   3.109  1.5084 -0.2358  0.3067
  477SOL     OW 1490   4.984   0.378   3.195  0.4277  0.3337  0.4119
  477SOL    HW1 1491   4.922   0.443   3.226  1.2677  1.8491 -0.9270
  477SOL    HW2 1492   5.070   0.415   3.215  0.9384  0.0592 -1.1440
  478SOL     OW 1493   3.396   4.292   2.911  0.0580 -0.0436 -0.1757
  478SOL    HW1 1494   3.444   4.314   2.990  1.6157  0.0749 -1.1037
  478SOL    HW2 1495   3.447   4.332   2.840 -0.1226 -1.8565 -1.4105
  479SOL     OW 1496   2.216   2.248   0.495 -0.3208  0.1502 -0.0740
  479SOL    HW1 1497   2.231   2.174   0.437  0.1465 -0.0790  0.3299
  479SOL    HW2 1498   2.137   2.225   0.543 -0.4587  0.1415 -0.3027
  480SOL     OW 1499   0.490   0.404   3.393 -0.2228 -0.6673  0.2917
  480SOL    HW1 1500   0.448   0.395   3.479  0.3128  0.4649  0.6873
  480SOL    HW2 1501   0.538   0.322   3.381  1.7216  0.1087  2.1972
  481SOL     OW 1502   1.187   1.493   1.329 -0.0393 -0.2119 -0.1444
  481SOL    HW1 1503   1.260   1.434   1.350 -0.3271 -0.7252 -0.5502
  481SOL    HW2 1504   1.230   1.570   1.291  0.2559 -0.8941 -1.2454
  482SOL     OW 1505   0.668   4.335   0.746  0.3364  0.2369 -0.8871
  482SOL    HW1 1506   0.578   4.367   0.732  0.0439 -0.7445 -1.3664
  482SOL    HW2 1507   0.669   4.250   0.703  1.6833  0.4990 -1.4029
  483SOL     OW 1508   0.871   2.394   3.456  0.4550 -0.1986 -0.0123
  483SOL    HW1 1509   0.778   2.384   3.476  0.6412 -1.5877  0.2547
  483SOL    HW2 1510   0.885   2.488   3.456 -1.1913  0.0962 -1.1795
  484SOL     OW 1511   0.665   0.811   2.619 -0.3033  0.4421 -0.4291
  484SOL    HW1 1512   0.732   0.828   2.553  1.0468 -0.2828  0.6790
  484SOL    HW2 1513   0.602   0.754   2.575  1.9119 -2.2349 -0.4672
  485SOL     OW 1514   4.788   3.737   4.339 -0.2421 -0.4707  0.1456
  485SOL    HW1 1515   4.723   3.772   4.400  0.1590  3.1226 -1.2115
  485SOL    HW2 1516   4.860   3.709   4.395 -1.4444 -1.0501  1.4795
  486SOL     OW 1517   3.480   4.227   1.566 -0.0027 -0.2142  0.7081
  486SOL    HW1 1518   3.404   4.194   1.519  1.4744 -0.7535 -1.4197
  486SOL    HW2 1519   3.509   4.153   1.621  0.8492 -1.1465 -0.9288
  487SOL     OW 1520   3.662   3.078   0.952 -0.1772  0.1536 -0.4319
  487SOL    HW1 1521   3.643   3.026   1.030  1.2915  1.0074  0.5525
  487SOL    HW2 1522   3.579   3.120   0.929 -0.0481  2.4223  2.6452
  488SOL     OW 1523   3.683   0.642   1.802  0.1818  0.1189  0.5915
  488SOL    HW1 1524   3.696   0.723   1.851 -0.8112  0.6102  0.0892
  488SOL    HW2 1525   3.769   0.622   1.765  0.7103  0.2802  1.7004
  489SOL     OW 1526   4.360   3.709   1.958 -0.4112  0.2352  0.0248
  489SOL    HW1 1527   4.431   3.647   1.973 -0.5903  0.0893  0.2636
  489SOL    HW2 1528   4.401   3.795   1.970  0.2194  0.2456 -1.8028
  490SOL     OW 1529   5.454   1.643   2.410  0.2718 -0.2958 -0.3661
  490SOL    HW1 1530   5.378   1.640   2.352 -0.3353 -2.3761  0.4199
  490SOL    HW2 1531   5.446   1.725   2.459  0.4974  1.2245 -2.7472
  491SOL     OW 1532   5.154   0.323   3.565 -0.0840 -0.0216  0.0596
  491SOL    HW1 1533   5.194   0.379   3.632  0.5533  0.5701 -0.7876
  491SOL    HW2 1534   5.097   0.383   3.516 -1.1099 -0.6024  0.5005
  492SOL     OW 1535   3.652   4.426   2.407 -0.4847  0.2684 -0.1066
  492SOL    HW1 1536   3.592   4.480   2.458 -1.2544  0.3159 -1.0394
  492SOL    HW2 1537   3.668   4.350   2.463 -2.4812 -0.3924 -0.3682
  493SOL     OW 1538   3.036   2.039   4.380 -0.1353 -0.0885  0.2951
  493SOL    HW1 1539   3.009   1.968   4.438 -2.1763 -0.0432 -0.5249
  493SOL    HW2 1540   3.005   2.118   4.423  1.3502  0.2622  0.7681
  494SOL     OW 1541   1.877   1.898   1.032  0.3854 -0.1748  0.2182
  494SOL    HW1 1542   1.892   1.816   1.078 -0.1295  0.1282  0.9523
  494SOL    HW2 1543   1.944   1.957   1.065 -0.6863  0.3823  1.4708
  495SOL     OW 1544   1.746   3.481   4.232  0.4987  0.0422 -0.4347
  495SOL    HW1 1545   1.663   3.479   4.281  1.4471  0.0398  1.2495
  495SOL    HW2 1546   1.748   3.398   4.184 -0.4774  0.0494 -0.5049
  496SOL     OW 1547   2.120   1.018   0.023  0.2587 -0.2967 -0.0040
  496SOL    HW1 1548   2.092   1.064   0.101 -0.3082 -0.8821  0.1467
  496SOL    HW2 1549   2.135   1.087  -0.042  1.3368  0.2420  0.7896
  497SOL     OW 1550   1.185   1.461   3.447  0.2922  0.3055  0.1963
  497SOL    HW1 1551   1.165   1.393   3.383 -1.1841  0.1591  0.7705
  497SOL    HW2 1552   1.264   1.503   3.414  1.7817 -2.2563  0.2897
  498SOL     OW 1553   0.098   3.576   0.296  0.0306  0.6629 -0.7465
  498SOL    HW1 1554   0.081   3.518   0.370 -1.0676  1.0460 -0.6686
  498SOL    HW2 1555   0.045   3.654   0.314  0.6658  1.2543 -1.3614
  499SOL     OW 1556   2.810   1.444   4.385  0.4432 -0.0148 -0.2704
  499SOL    HW1 1557   2.731   1.401   4.416  1.0442 -0.4405  0.7157
  499SOL    HW2 1558   2.780   1.499   4.313 -0.4954 -1.3398 -0.9384
  500SOL     OW 1559   0.434   1.860   0.147  0.1947 -0.0837  0.1296
  500SOL    HW1 1560   0.524   1.838   0.123  0.4209  0.9099  0.0070
  500SOL    HW2 1561   0.404   1.785   0.198  1.9913  0.6080  2.3929
  501SOL     OW 1562   4.661   1.916   0.206 -0.2671 -0.0403  0.0640
  501SOL    HW1 1563   4.722   1.975   0.162  1.0149 -1.1036  0.3360
  501SOL    HW2 1564   4.705   1.894   0.289 -1.3357 -0.3040  0.5799
  502SOL     OW 1565   5.132   1.800   1.386 -0.4126 -0.0497 -0.0426
  502SOL    HW1 1566   5.050   1.795   1.337 -0.7418  1.2062  0.3189
  502SOL    HW2 1567   5.116   1.748   1.465 -1.8728  2.2439  1.2995
  503SOL     OW 1568   4.916   0.033   0.951  0.0052 -0.3295  0.5787
  503SOL    HW1 1569   4.947   0.004   0.865  0.4894  0.0162  0.6334
  503SOL    HW2 1570   4.992   0.076   0.991  0.3356 -2.0143  1.8899
  504SOL     OW 1571   3.264   0.250   0.068 -0.0757  0.2031 -0.2124
  504SOL    HW1 1572   3.348   0.258   0.113 -0.1913  1.6814 -0.2328
  504SOL    HW2 1573   3.199   0.249   0.139 -0.1214  0.2771 -0.2538
  505SOL     OW 1574   2.530   3.623   3.963 -0.4319  0.1347  0.1840
  505SOL    HW1 1575   2.565   3.712   3.964 -0.7818  0.2780  0.8029
  505SOL    HW2 1576   2.559   3.585   4.046 -0.7144 -0.1546  0.1521
  506SOL     OW 1577   5.083   4.365   3.978 -0.3783 -0.3284 -0.2496
  506SOL    HW1 1578   5.081   4.423   4.054 -1.2367 -1.9937  1.0578
  506SOL    HW2 1579   5.161   4.311   3.990  0.0183  0.0549 -1.0689
  507SOL     OW 1580   3.167   1.391   0.338 -0.1493 -0.1026 -0.3012
  507SOL    HW1 1581   3.158   1.450   0.413  1.3486 -2.0850  1.5792
  507SOL    HW2 1582   3.209   1.443   0.271  0.6493  1.1180  1.0831
  508SOL     OW 1583   0.744   3.864   3.166  0.4329 -0.0072 -0.2634
  508SOL    HW1 1584   0.683   3.854   3.092 -0.0618 -1.1046  0.2643
  508SOL    HW2 1585   0.822   3.815   3.138 -0.1101 -1.2389  0.2959
  509SOL     OW 1586   3.093   4.524   0.081  0.0362  0.6809 -0.1867
  509SOL    HW1 1587   3.091   4.444   0.133  3.7807  0.8768  0.5122
  509SOL    HW2 1588   3.069   4.593   0.142  0.8576  0.5072  0.3498
  510SOL     OW 1589   1.153   3.011   2.267  0.3907 -0.1895  0.4209
  510SOL    HW1 1590   1.115   3.014   2.179  1.1724 -0.6514  0.0549
  510SOL    HW2 1591   1.241   2.975   2.253  0.7132  0.2431  1.3260
  511SOL     OW 1592   0.611   2.467   0.060  0.2708  0.1679  0.2946
  511SOL    HW1 1593   0.619   2.405  -0.013 -0.6945  1.4677 -0.9851
  511SOL    HW2 1594   0.697   2.507   0.068 -0.1646  1.7155 -1.7973
  512SOL     OW 1595   4.914   0.206   4.441  0.1978 -0.3470  0.2256
  512SOL    HW1 1596   4.985   0.145   4.456 -0.1728 -0.5453  1.2922
  512SOL    HW2 1597   4.918   0.266   4.516  0.5061  0.8965 -0.7605
  513SOL     OW 1598   2.537   3.716   2.588  0.0566  0.3061  0.1283
  513SOL    HW1 1599   2.510   3.799   2.627  0.8085  0.1522  1.0436
  513SOL    HW2 1600   2.615   3.737   2.537  0.0672  0.2270  0.1110
  514SOL     OW 1601   1.497   2.554   3.716 -0.2443 -0.1146  0.2054
  514SOL    HW1 1602   1.546   2.557   3.633 -1.3231 -0.2536 -0.4538
  514SOL    HW2 1603   1.565   2.541   3.782  0.6166 -0.3582 -0.6839
  515SOL     OW 1604   3.956   0.099   4.364  0.5503  0.5285 -0.1928
  515SOL    HW1 1605   3.938   0.062   4.450  1.7452  0.6868  0.1492
  515SOL    HW2 1606   3.877   0.147   4.341  0.3540  0.7941  0.9745
  516SOL     OW 1607   0.212   1.039   1.148  0.0721 -0.0525  0.1138
  516SOL    HW1 1608   0.242   1.127   1.126  1.0311 -0.3337  0.2339
  516SOL    HW2 1609   0.116   1.045   1.150  0.0887  0.7318 -0.9373
  517SOL     OW 1610   0.781   4.233   2.984  0.1319 -0.6991 -0.0374
  517SOL    HW1 1611   0.692   4.203   2.963  0.6617 -1.3471 -1.4570
  517SOL    HW2 1612   0.785   4.230   3.080 -1.1429 -1.3388  0.0192
  518SOL     OW 1613   3.915   4.796   4.402  0.2211 -0.1099 -0.2779
  518SOL    HW1 1614   3.898   4.890   4.410  1.8808  0.2399 -0.6343
  518SOL    HW2 1615   3.923   4.766   4.492 -1.0585 -0.0844 -0.1307
  519SOL     OW 1616   4.948   1.866   4.283  0.1533 -0.4070  0.3908
  519SOL    HW1 1617   4.956   1.857   4.378 -1.0094 -1.4384  0.4288
  519SOL    HW2 1618   4.906   1.784   4.255  0.2180 -0.0013 -0.9777
  520SOL     OW 1619   2.233   3.589   2.164  0.6292  0.0463 -0.1752
  520SOL    HW1 1620   2.243   3.603   2.259  0.0191  1.2731 -0.2703
  520SOL    HW2 1621   2.155   3.535   2.156  0.0695  0.8055 -0.0040
  521SOL     OW 1622   0.529   4.552   4.157 -0.0995 -0.0690 -0.8007
  521SOL    HW1 1623   0.534   4.556   4.061 -0.1035  0.4375 -0.7816
  521SOL    HW2 1624   0.602   4.495   4.182  1.3905  1.6861 -0.9628
  522SOL     OW 1625   3.150   1.180   0.647 -0.4197 -0.2832  0.6477
  522SOL    HW1 1626   3.090   1.110   0.673 -0.3978 -1.0399 -1.1728
  522SOL    HW2 1627   3.103   1.228   0.579  0.5583 -0.1288  0.0583
  523SOL     OW 1628   3.355   0.947   2.332 -0.4084 -0.0014  0.1172
  523SOL    HW1 1629   3.338   0.941   2.238  1.3051  0.3326 -0.2492
  523SOL    HW2 1630   3.337   0.860   2.366 -1.9006  0.1083 -0.3557
  524SOL     OW 1631   3.892   4.571   2.335 -0.4523  0.0076  0.1998
  524SOL    HW1 1632   3.797   4.561   2.341 -0.3287 -1.1058  0.5348
  524SOL    HW2 1633   3.926   4.483   2.350  0.6229  0.3288 -0.2761
  525SOL     OW 1634   3.709   0.122   3.827  0.3680 -0.3094 -0.1328
  525SOL    HW1 1635   3.715   0.040   3.777  0.4133 -0.6567  0.4300
  525SOL    HW2 1636   3.619   0.122   3.861  0.5616 -0.4434  0.3932
  526SOL     OW 1637   4.270   3.577   0.569 -0.3867 -0.7498 -0.0512
  526SOL    HW1 1638   4.213   3.649   0.594  0.1223 -0.3470 -0.0193
  526SOL    HW2 1639   4.222   3.529   0.502 -0.1173  0.5181 -1.1899
  527SOL     OW 1640   1.914   2.712   3.837 -0.5600 -0.5632 -0.3498
  527SOL    HW1 1641   1.927   2.804   3.814 -0.1455 -0.4596  0.2735
  527SOL    HW2 1642   1.826   2.707   3.873 -1.4696 -0.8369 -2.4547
  528SOL     OW 1643   0.070   2.973   0.466  0.0072  0.1800 -0.1948
  528SOL    HW1 1644   0.096   2.890   0.427  1.4567  0.6570 -0.2986
  528SOL    HW2 1645   0.101   3.039   0.404 -0.0183  0.8458  0.4853
  529SOL     OW 1646   1.415   0.611   1.093  0.1859 -0.1127  0.9423
  529SOL    HW1 1647   1.424   0.647   1.005 -3.1419 -2.1814 -0.4334
  529SOL    HW2 1648   1.488   0.550   1.102  1.4217  1.2061  0.2966
  530SOL     OW 1649   5.445   4.692   0.195 -0.4415 -0.2399 -0.3839
  530SOL    HW1 1650   5.431   4.630   0.267  1.3159  0.5718  0.7442
  530SOL    HW2 1651   5.372   4.677   0.135 -1.2103 -1.9112  0.8909
  531SOL     OW 1652   3.745   4.262   1.824  0.1895 -0.3293 -0.0320
  531SOL    HW1 1653   3.759   4.168   1.812  2.5676  0.0607 -0.8763
  531SOL    HW2 1654   3.793   4.283   1.905  0.2492  0.2638 -0.2197
  532SOL     OW 1655   0.592   2.466   3.576 -0.2760 -0.3647 -0.4277
  532SOL    HW1 1656   0.516   2.500   3.623  0.9132  3.2627 -0.7673
  532SOL    HW2 1657   0.647   2.427   3.644 -0.2448  1.5103  0.7063
  533SOL     OW 1658   3.663   0.823   2.555 -0.2323  0.7307  0.1009
  533SOL    HW1 1659   3.678   0.730   2.574  2.3996  0.7013 -1.6023
  533SOL    HW2 1660   3.712   0.869   2.623  0.5509  0.8048 -0.5050
  534SOL     OW 1661   5.372   4.888   3.867  0.0827 -0.2972  0.2461
  534SOL    HW1 1662   5.444   4.948   3.851  2.2292 -2.8272 -0.2481
  534SOL    HW2 1663   5.298   4.925   3.819  1.7659  1.0653 -1.4107
  535SOL     OW 1664   1.486   2.234   2.626 -0.3737  0.1716  0.1284
  535SOL    HW1 1665   1.447   2.317   2.596  0.3262  0.2915 -0.4825
  535SOL    HW2 1666   1.576   2.237   2.593 -0.5208 -1.1093 -0.4389
  536SOL     OW 1667   3.245   0.979   0.367  0.6896  0.0692  0.1246
  536SOL    HW1 1668   3.167   1.034   0.366  0.3565 -0.2484  2.3232
  536SOL    HW2 1669   3.289   1.002   0.449  1.4836 -1.6364  0.2252
  537SOL     OW 1670   5.157   0.428   0.718 -1.1143 -0.8557 -0.5169
  537SOL    HW1 1671   5.151   0.518   0.688 -2.0404 -0.8864 -0.4317
  537SOL    HW2 1672   5.068   0.403   0.740 -0.4656 -0.6891  2.7966
  538SOL     OW 1673   3.291   3.608   1.544  0.3061  0.3393 -0.2497
  538SOL    HW1 1674   3.199   3.609   1.520  0.1684  0.6113  0.2914
  538SOL    HW2 1675   3.292   3.601   1.639  0.7991  2.3478 -0.0521
  539SOL     OW 1676   2.323   3.389   2.915  0.6527  0.9788 -0.1317
  539SOL    HW1 1677   2.359   3.307   2.880  3.3855  1.8440  0.3871
  539SOL    HW2 1678   2.231   3.389   2.888  0.8251 -1.7713 -0.9795
  540SOL     OW 1679   0.977   0.595   3.391 -0.9532  0.0477 -0.1117
  540SOL    HW1 1680   1.017   0.536   3.327  0.1537  0.4875  0.1473
  540SOL    HW2 1681   0.961   0.539   3.467 -0.6598 -0.1005 -0.1550
  541SOL     OW 1682   0.699   4.753   0.521 -0.0297  0.0412 -0.6373
  541SOL    HW1 1683   0.674   4.806   0.597  1.1693  0.3240 -0.4205
  541SOL    HW2 1684   0.758   4.686   0.557  1.3127  0.7578 -1.4269
  542SOL     OW 1685   1.079   3.292   0.813  0.1329 -0.2928  0.1638
  542SOL    HW1 1686   1.087   3.355   0.742  0.6942 -0.1624  0.3379
  542SOL    HW2 1687   1.005   3.322   0.864  0.0952 -0.0514 -0.0313
  543SOL     OW 1688   2.901   3.354   2.165 -0.2590  0.0830 -0.4085
  543SOL    HW1 1689   2.847   3.275   2.157 -0.4685  0.1426  0.3296
  543SOL    HW2 1690   2.845   3.425   2.134 -0.3963  0.0626 -0.2098
  544SOL     OW 1691   1.614   0.200   2.400 -0.6378 -0.6255 -0.3751
  544SOL    HW1 1692   1.575   0.136   2.341  1.0648 -2.1032  0.0149
  544SOL    HW2 1693   1.706   0.174   2.407 -0.7030 -0.4738  2.7950
  545SOL     OW 1694   3.758   0.871   4.018 -0.2452  0.0509  0.2931
  545SOL    HW1 1695   3.787   0.789   4.058  0.2061 -1.1281 -2.2899
  545SOL    HW2 1696   3.663   0.873   4.034 -0.4619 -1.6004 -0.5968
  546SOL     OW 1697   2.163   3.473   3.373 -0.4718 -0.6028 -0.0348
  546SOL    HW1 1698   2.249   3.469   3.332 -1.1958 -0.8527 -1.6131
  546SOL    HW2 1699   2.133   3.563   3.359  0.4762  0.2351  2.6598
  547SOL     OW 1700   4.893   4.061   1.373  0.0064  0.1591  0.2142
  547SOL    HW1 1701   4.814   4.009   1.390  0.1169  0.1942  0.8649
  547SOL    HW2 1702   4.928   4.025   1.292 -1.5728  1.2285 -1.0063
  548SOL     OW 1703   0.405   4.008   3.865 -0.0665  0.2772  0.0214
  548SOL    HW1 1704   0.345   3.934   3.864 -0.3424  0.4280  1.8801
  548SOL    HW2 1705   0.393   4.049   3.951  2.5516  0.4189  0.4241
  549SOL     OW 1706   0.741   1.480   3.817  0.1378  0.3802 -0.0680
  549SOL    HW1 1707   0.782   1.561   3.849  1.2981  0.1540 -0.9375
  549SOL    HW2 1708   0.649   1.504   3.805  0.4221  1.5124 -0.1121
  550SOL     OW 1709   1.243   2.987   0.515 -0.3064 -0.8336 -0.0759
  550SOL    HW1 1710   1.276   3.077   0.525  0.9769 -1.1454 -1.1393
  550SOL    HW2 1711   1.152   2.992   0.543 -0.1794  0.7421  0.1758
  551SOL     OW 1712   0.942   1.048   0.629 -0.3353 -0.3137  0.7421
  551SOL    HW1 1713   1.004   1.111   0.665  2.0334 -1.9141 -0.2577
  551SOL    HW2 1714   0.943   0.976   0.692  0.6653 -1.3390 -0.3844
  552SOL     OW 1715   2.763   5.007   1.408 -0.5070 -0.1863 -0.1220
  552SOL    HW1 1716   2.807   4.923   1.419 -0.8479 -0.4010 -0.3775
  552SOL    HW2 1717   2.670   4.986   1.414 -0.5653  0.3693  1.1575
  553SOL     OW 1718   2.328   2.092   1.896  0.5517  0.3185 -0.1706
  553SOL    HW1 1719   2.314   2.160   1.962 -0.0970  3.4964 -3.2821
  553SOL    HW2 1720   2.248   2.094   1.843  0.6588 -2.7505 -0.6012
  554SOL     OW 1721   4.868   1.155   0.961 -0.3813  0.2014  0.2946
  554SOL    HW1 1722   4.773   1.146   0.953 -0.6556  2.1688  0.9208
  554SOL    HW2 1723   4.893   1.213   0.889  0.2028  0.4461  0.6885
  555SOL     OW 1724   4.320   4.442   0.736 -0.0617 -0.9535  0.4194
  555SOL    HW1 1725   4.226   4.422   0.735 -0.3105  0.0552  1.4498
  555SOL    HW2 1726   4.355   4.398   0.659 -1.8378  0.8101 -1.4931
  556SOL     OW 1727   4.514   1.041   3.088  0.4211  0.3997  0.3261
  556SOL    HW1 1728   4.584   0.985   3.055 -0.3171  0.8674 -2.2414
  556SOL    HW2 1729   4.551   1.129   3.087  0.8466  0.2834  2.2206
  557SOL     OW 1730   1.143   0.516   1.154 -0.6733 -0.2335 -0.3638
  557SOL    HW1 1731   1.217   0.559   1.110 -0.2873 -0.0510  0.4424
  557SOL    HW2 1732   1.080   0.586   1.169  0.3134  0.3180  1.7233
  558SOL     OW 1733   4.588   0.229   3.535  0.5628 -0.0986 -0.1351
  558SOL    HW1 1734   4.582   0.255   3.442 -0.5609  0.0948 -0.0226
  558SOL    HW2 1735   4.497   0.219   3.563  0.9090 -1.2025  0.6724
  559SOL     OW 1736   3.321   2.600   2.071 -0.1504 -0.2585 -0.3805
  559SOL    HW1 1737   3.351   2.659   2.002 -1.2011  0.5020 -0.2013
  559SOL    HW2 1738   3.232   2.628   2.090 -0.0878 -0.8366  0.8739
  560SOL     OW 1739   3.596   3.347   3.090 -0.0579 -0.6115  0.2528
  560SOL    HW1 1740   3.552   3.293   3.156 -0.8435  1.7766  1.8219
  560SOL    HW2 1741   3.655   3.287   3.045 -2.0525 -3.1082  0.7465
  561SOL     OW 1742   2.317   4.615   3.624  0.1951  0.1211  0.3152
  561SOL    HW1 1743   2.345   4.551   3.559 -0.0092 -0.0774  0.4233
  561SOL    HW2 1744   2.382   4.686   3.617  2.7966 -1.7599  2.8353
  562SOL     OW 1745   4.042   0.993   4.118  0.1326 -0.0641  0.5654
  562SOL    HW1 1746   4.090   1.034   4.189  1.7153  2.4457 -1.7668
  562SOL    HW2 1747   3.966   1.049   4.104  2.1194  2.2231 -2.4034
  563SOL     OW 1748   2.592   3.357   2.752  0.1848 -0.1882 -0.3212
  563SOL    HW1 1749   2.602   3.262   2.758  1.4391 -0.1039 -0.7362
  563SOL    HW2 1750   2.629   3.391   2.834 -0.3448 -0.0614 -0.1328
  564SOL     OW 1751   2.708   2.363   0.069  0.3829 -0.2983 -0.2481
  564SOL    HW1 1752   2.700   2.452   0.102  0.4695 -0.1491 -0.6320
  564SOL    HW2 1753   2.754   2.372  -0.014  0.4065 -0.7024 -0.2809
  565SOL     OW 1754   5.393   0.289   1.801  0.1560  0.1415 -0.2504
  565SOL    HW1 1755   5.434   0.253   1.879 -2.3416  0.9448  1.5716
  565SOL    HW2 1756   5.449   0.362   1.775  0.2673  0.8011  1.7336
  566SOL     OW 1757   2.951   2.408   0.211 -0.4769 -0.1310 -0.2226
  566SOL    HW1 1758   2.896   2.341   0.170 -1.1331  1.2158 -1.5891
  566SOL    HW2 1759   2.981   2.463   0.139  2.4300 -0.5930  0.5007
  567SOL     OW 1760   5.262   1.603   2.219  0.2611  0.2871 -0.3479
  567SOL    HW1 1761   5.179   1.555   2.218 -0.3854  1.2135  2.0464
  567SOL    HW2 1762   5.262   1.651   2.137 -1.2220 -0.3338 -0.7595
  568SOL     OW 1763   1.375   3.261   1.443  0.0368 -0.3313 -0.5073
  568SOL    HW1 1764   1.333   3.241   1.360  0.0418 -0.6661 -0.4332
  568SOL    HW2 1765   1.359   3.354   1.457  0.3862 -0.1837 -1.0754
  569SOL     OW 1766   1.156   3.331   3.525  0.0977 -0.1482  0.8855
  569SOL    HW1 1767   1.193   3.367   3.444  1.1064  0.9516  1.8031
  569SOL    HW2 1768   1.082   3.387   3.545 -1.6686 -1.8524 -0.5026
  570SOL     OW 1769   3.440   0.758   1.840 -0.7824 -0.3369  0.6933
  570SOL    HW1 1770   3.519   0.705   1.824 -0.4342  0.2928  0.2680
  570SOL    HW2 1771   3.474   0.844   1.864 -1.3276 -0.6549  2.7472
  571SOL     OW 1772   3.462   4.308   1.858  0.6490 -0.0935 -0.1002
  571SOL    HW1 1773   3.538   4.265   1.819  1.4714  0.5802  0.7365
  571SOL    HW2 1774   3.493   4.342   1.941 -0.9299 -1.0080  0.9152
  572SOL     OW 1775   5.244   3.609   2.738 -0.1288  0.0923 -0.5799
  572SOL    HW1 1776   5.156   3.615   2.700  0.1130  1.4249 -0.9708
  572SOL    HW2 1777   5.301   3.646   2.671  0.4656  1.2958  0.5457
  573SOL     OW 1778   3.233   3.440   0.494 -0.4022  0.2265  0.0099
  573SOL    HW1 1779   3.224   3.533   0.513  0.0636 -0.1348  2.3632
  573SOL    HW2 1780   3.150   3.402   0.522 -0.4675 -0.1200 -0.6387
  574SOL     OW 1781   0.200   3.074   4.035 -0.3653  0.4668 -0.5512
  574SOL    HW1 1782   0.270   3.120   3.991  0.4426  0.4785  0.6847
  574SOL    HW2 1783   0.203   3.106   4.125 -1.8639  0.3511 -0.4306
  575SOL     OW 1784   0.937   4.716   3.362 -0.1632  0.1828 -0.3524
  575SOL    HW1 1785   0.956   4.703   3.455  0.9884  1.1136 -0.4283
  575SOL    HW2 1786   0.864   4.657   3.344 -0.6384  0.2280  1.2205
  576SOL     OW 1787   2.869   2.623   3.497 -0.2234  0.1649 -0.7649
  576SOL    HW1 1788   2.829   2.549   3.541  0.1305 -1.0261 -2.3655
  576SOL    HW2 1789   2.857   2.606   3.404 -0.3357  2.2488 -1.1947
  577SOL     OW 1790   0.254   4.185   2.476 -0.1573  0.3911  0.3499
  577SOL    HW1 1791   0.277   4.095   2.452 -3.9696 -0.5687 -0.2625
  577SOL    HW2 1792   0.268   4.235   2.395  0.9827  0.1831  0.3989
  578SOL     OW 1793   1.564   2.552   2.248 -0.2542 -0.1023  0.0078
  578SOL    HW1 1794   1.536   2.594   2.167 -0.6709  1.0608  0.7312
  578SOL    HW2 1795   1.632   2.610   2.283  2.3233 -2.2254 -1.0863
  579SOL     OW 1796   2.597   5.038   2.633  0.5858 -0.2118  0.9078
  579SOL    HW1 1797   2.533   5.002   2.694  1.5123 -0.5621  1.7023
  579SOL    HW2 1798   2.562   5.125   2.610 -1.0585 -1.0869 -0.0855
  580SOL     OW 1799   2.947   3.357   0.541 -0.0039  0.1559  0.2803
  580SOL    HW1 1800   2.964   3.338   0.449  1.1988  0.2347  0.4743
  580SOL    HW2 1801   2.854   3.380   0.544 -0.6968 -2.3332 -0.4911
  581SOL     OW 1802   4.710   0.010   1.150  0.8885 -0.0723  0.4236
  581SOL    HW1 1803   4.749   0.040   1.068 -2.3453  1.2082 -0.8238
  581SOL    HW2 1804   4.621  -0.015   1.126 -0.2061  0.3894  3.5477
  582SOL     OW 1805   1.916   2.768   0.421  0.0237 -0.0830 -0.2396
  582SOL    HW1 1806   1.876   2.824   0.488 -0.7100 -2.4018  1.3757
  582SOL    HW2 1807   2.006   2.800   0.414 -0.0931  0.6925  1.3434
  583SOL     OW 1808   1.994   2.257   2.505  0.3121 -0.1743  0.0480
  583SOL    HW1 1809   1.985   2.348   2.478 -1.4361 -0.5018 -0.6056
  583SOL    HW2 1810   2.072   2.225   2.459  0.2965  0.6837 -0.5863
  584SOL     OW 1811   1.640   3.046   3.399 -0.0104 -0.0036 -0.4912
  584SOL    HW1 1812   1.698   3.093   3.459  0.5412  0.6467 -1.5068
  584SOL    HW2 1813   1.569   3.108   3.380 -0.3146 -0.2961 -0.3319
  585SOL     OW 1814   5.250   2.063   3.527 -0.4980  0.3674  0.3466
  585SOL    HW1 1815   5.262   1.976   3.565  0.2367  0.5333  0.4925
  585SOL    HW2 1816   5.259   2.123   3.600 -0.3051  0.6146  0.1207
  586SOL     OW 1817   5.121   2.473   3.307  0.2406  0.0827  0.4619
  586SOL    HW1 1818   5.039   2.478   3.356 -1.0734 -0.5437 -1.5387
  586SOL    HW2 1819   5.121   2.550   3.250  2.2452  1.3811  2.0799
  587SOL     OW 1820   3.150   3.397   3.404 -1.0161  0.3401  0.2484
  587SOL    HW1 1821   3.238   3.397   3.367 -1.9302 -0.8860 -2.1406
  587SOL    HW2 1822   3.109   3.318   3.368 -2.9724  0.6815  1.5897
  588SOL     OW 1823   4.662   4.447   3.226  0.1046  0.6573  0.0055
  588SOL    HW1 1824   4.754   4.449   3.253  0.0263 -0.4206  0.3545
  588SOL    HW2 1825   4.624   4.374   3.273 -0.8038  0.7358 -0.5838
  589SOL     OW 1826   1.860   1.724   1.788 -0.3149 -0.1729  0.2962
  589SOL    HW1 1827   1.912   1.673   1.727 -1.2476  0.9600 -1.5415
  589SOL    HW2 1828   1.921   1.749   1.857  0.9924 -0.7834 -0.6026
  590SOL     OW 1829   0.444   0.710   1.295 -0.3466  0.1062  0.3933
  590SOL    HW1 1830   0.356   0.745   1.305 -0.3387 -0.0568  1.0896
  590SOL    HW2 1831   0.441   0.659   1.213 -0.7805  0.4383  0.1998
  591SOL     OW 1832   3.679   3.501   3.325 -0.3188  0.1735  0.1455
  591SOL    HW1 1833   3.616   3.516   3.254  0.4852 -0.9672 -0.8532
  591SOL    HW2 1834   3.762   3.487   3.280 -0.0487 -2.0466  1.1834
  592SOL     OW 1835   1.419   5.094   1.341  0.6308 -0.6261 -0.6831
  592SOL    HW1 1836   1.452   5.015   1.385  1.5004 -0.2325 -0.6102
  592SOL    HW2 1837   1.497   5.136   1.306  0.1634  0.1913 -0.7535
  593SOL     OW 1838   3.414   0.478   3.821  0.0241  0.5066 -0.2796
  593SOL    HW1 1839   3.437   0.409   3.882 -0.5026  0.2685 -0.3447
  593SOL    HW2 1840   3.496   0.526   3.806  0.3528 -0.0009 -0.1097
  594SOL     OW 1841   1.101   2.342   0.225  0.5089 -0.4083 -0.2030
  594SOL    HW1 1842   1.125   2.252   0.250  2.5578 -0.2246 -1.3076
  594SOL    HW2 1843   1.081   2.335   0.131 -0.3249  0.1281 -0.0701
  595SOL     OW 1844   0.846   3.627   1.908 -0.3361  0.3722  0.1782
  595SOL    HW1 1845   0.940   3.615   1.925  0.3779 -0.1665 -3.2744
  595SOL    HW2 1846   0.833   3.722   1.913  0.1592  0.3841  1.5537
  596SOL     OW 1847   0.867   1.636   4.174 -0.2796 -0.3852 -0.2522
  596SOL    HW1 1848   0.955   1.670   4.162 -0.6762  0.3950 -1.0692
  596SOL    HW2 1849   0.810   1.712   4.159 -1.1250 -1.0820 -0.6352
  597SOL     OW 1850   0.594   1.637   0.602  0.4343 -0.5118 -0.1131
  597SOL    HW1 1851   0.588   1.608   0.693  0.8652 -2.2432 -0.5939
  597SOL    HW2 1852   0.686   1.622   0.579 -0.2097 -2.6432 -1.5883
  598SOL     OW 1853   2.229   2.794   1.433  0.3694 -0.6708  0.6399
  598SOL    HW1 1854   2.199   2.758   1.349  0.5964 -1.5041  0.9064
  598SOL    HW2 1855   2.190   2.881   1.437  0.1639 -0.7125 -0.2252
  599SOL     OW 1856   5.249   3.855   0.673 -0.0475 -0.1985 -0.6125
  599SOL    HW1 1857   5.188   3.905   0.619 -0.8900 -0.5044  0.0315
  599SOL    HW2 1858   5.218   3.868   0.763  1.3347  0.3089 -0.1842
  600SOL     OW 1859   1.992   0.814   2.646 -0.3597  1.1644  0.1163
  600SOL    HW1 1860   1.906   0.826   2.605 -0.3507 -2.4085 -1.3076
  600SOL    HW2 1861   2.045   0.886   2.612 -2.1926  2.1693 -0.7528
  601SOL     OW 1862   2.212   2.911   4.122  0.4549  0.1001 -0.5298
  601SOL    HW1 1863   2.150   2.898   4.194  2.5439  1.4909  1.6323
  601SOL    HW2 1864   2.210   2.828   4.074  0.0813 -1.4369  1.9912
  602SOL     OW 1865   2.130   1.266   0.576  0.0841 -0.0515  0.7200
  602SOL    HW1 1866   2.125   1.186   0.628 -1.8013  0.4481  1.4009
  602SOL    HW2 1867   2.143   1.335   0.641  1.1170  0.2618  0.1930
  603SOL     OW 1868   4.317   3.088   0.339  0.1760 -0.0034 -0.7260
  603SOL    HW1 1869   4.289   3.143   0.266 -0.6446  1.4413  0.5888
  603SOL    HW2 1870   4.276   3.129   0.416  0.0684 -2.1162  0.4113
  604SOL     OW 1871   2.414   5.125   0.149 -0.3041  0.2714 -0.0879
  604SOL    HW1 1872   2.380   5.077   0.225 -1.4698  0.4409 -0.4812
  604SOL    HW2 1873   2.387   5.215   0.163 -2.4920 -0.0409 -1.7163
  605SOL     OW 1874   3.778   4.455   1.236  0.5263  0.3796  0.1408
  605SOL    HW1 1875   3.756   4.540   1.275  1.2713  0.8936 -0.5085
  605SOL    HW2 1876   3.839   4.477   1.165 -0.5251 -0.5426 -1.0907
  606SOL     OW 1877   4.630   0.713   0.979 -0.2026 -0.1280  0.2337
  606SOL    HW1 1878   4.692   0.651   1.017 -1.0889 -1.6996 -0.7890
  606SOL    HW2 1879   4.551   0.703   1.030 -0.7476 -0.7866 -0.7003
  607SOL     OW 1880   5.383   0.759   0.523 -0.1453  0.1256  0.2097
  607SOL    HW1 1881   5.302   0.802   0.550 -0.4641 -0.1099 -0.3430
  607SOL    HW2 1882   5.446   0.831   0.514 -0.4598  0.3856  0.0514
  608SOL     OW 1883   4.703   5.093   0.467 -0.2153  0.0066  0.6519
  608SOL    HW1 1884   4.755   5.128   0.393 -1.1213  0.8580  0.3990
  608SOL    HW2 1885   4.700   4.999   0.451  0.6645  0.0253  0.2911
  609SOL     OW 1886   4.491   3.946   2.067  0.2401  0.4918 -0.2331
  609SOL    HW1 1887   4.458   3.960   2.155 -1.1052  0.3075 -0.6829
  609SOL    HW2 1888   4.495   4.034   2.028  1.3268  0.6356  0.1459
  610SOL     OW 1889   0.210   1.158   3.613  0.4043  0.4882  0.7430
  610SOL    HW1 1890   0.158   1.096   3.664 -2.5797  1.0577 -1.3672
  610SOL    HW2 1891   0.281   1.106   3.576  0.2283 -0.7657  2.0836
  611SOL     OW 1892   3.881   1.621   2.119  0.0519  0.7616  0.0560
  611SOL    HW1 1893   3.822   1.546   2.121 -1.4932  1.9169  0.2501
  611SOL    HW2 1894   3.940   1.607   2.193  0.8205 -1.0033 -0.8417
  612SOL     OW 1895   1.241   1.027   2.054 -0.7433  0.0390  0.2579
  612SOL    HW1 1896   1.331   1.010   2.083 -0.6553 -2.7354 -1.3096
  612SOL    HW2 1897   1.186   0.979   2.116 -1.0279  0.2522  0.1717
  613SOL     OW 1898   2.976   4.390   0.511  0.2054 -0.4098 -0.6614
  613SOL    HW1 1899   2.967   4.298   0.487  0.4181 -0.0582 -2.1789
  613SOL    HW2 1900   2.937   4.396   0.598  0.5639 -2.0026 -0.3668
  614SOL     OW 1901   4.651   4.983   2.757 -0.1966  0.0577 -0.0262
  614SOL    HW1 1902   4.732   5.004   2.710  0.0146 -2.2791 -0.8391
  614SOL    HW2 1903   4.582   4.992   2.691  0.1646 -3.8078 -1.1585
  615SOL     OW 1904   3.727   0.551   0.597 -0.4271 -0.0682  0.0942
  615SOL    HW1 1905   3.797   0.616   0.606 -1.3202  1.0474 -0.6745
  615SOL    HW2 1906   3.764   0.484   0.540  0.6131 -0.4348  1.1347
  616SOL     OW 1907   2.341   0.234   0.064  0.3574 -0.1163 -0.1239
  616SOL    HW1 1908   2.298   0.167   0.118 -2.0846  2.0294  0.8120
  616SOL    HW2 1909   2.400   0.278   0.125 -0.6537  0.7953  0.2198
  617SOL     OW 1910   1.293   0.779   1.267  0.5855  0.1553 -0.4791
  617SOL    HW1 1911   1.334   0.745   1.188 -1.3784  0.2296 -1.6120
  617SOL    HW2 1912   1.321   0.871   1.270  0.7378  0.1336 -1.0566
  618SOL     OW 1913   0.729   3.959   0.067  0.1629  0.4335 -0.0513
  618SOL    HW1 1914   0.689   4.046   0.071 -0.9826  0.0624 -2.0758
  618SOL    HW2 1915   0.680   3.908   0.132  0.5681  1.1566  0.8594
  619SOL     OW 1916   1.449   3.065   1.998 -0.3102 -0.2423 -0.0096
  619SOL    HW1 1917   1.541   3.040   1.994  0.4123  1.9430  1.0740
  619SOL    HW2 1918   1.432   3.107   1.914 -0.9041 -2.2335 -0.9484
  620SOL     OW 1919   5.374   4.386   4.235  0.2565  0.5222 -0.0015
  620SOL    HW1 1920   5.300   4.444   4.217  0.8408  1.1932 -0.2927
  620SOL    HW2 1921   5.370   4.320   4.165 -0.7783 -0.1830  0.6928
  621SOL     OW 1922   5.370   1.037   1.493  0.5904 -0.3957 -0.4201
  621SOL    HW1 1923   5.367   0.944   1.471 -0.5768 -0.0883 -1.7068
  621SOL    HW2 1924   5.336   1.081   1.415  0.3481  1.0616  0.4678
  622SOL     OW 1925   0.403   2.051   3.386 -0.5838  0.0164 -0.2471
  622SOL    HW1 1926   0.460   2.025   3.459 -0.6001  0.1264 -0.1945
  622SOL    HW2 1927   0.462   2.097   3.326 -0.6049  0.0765 -0.2216
  623SOL     OW 1928   4.715   2.428   0.919 -0.0068 -0.3155 -0.4256
  623SOL    HW1 1929   4.625   2.434   0.887  0.2839  0.9816 -1.0444
  623SOL    HW2 1930   4.706   2.393   1.008 -1.3253  1.9356  0.4167
  624SOL     OW 1931   1.762   1.205   4.360 -0.5329  0.3865 -0.3314
  624SOL    HW1 1932   1.710   1.271   4.316 -1.6696 -0.2615 -0.0043
  624SOL    HW2 1933   1.748   1.220   4.453 -0.9583 -0.4020 -0.2517
  625SOL     OW 1934   2.784   3.929   3.637 -0.6662  0.1235  0.7795
  625SOL    HW1 1935   2.739   3.881   3.567 -0.8690  0.7197  0.4961
  625SOL    HW2 1936   2.877   3.914   3.620 -0.7321 -1.3609  1.5396
  626SOL     OW 1937   3.537   3.920   3.154 -0.1960 -0.0326 -0.4016
  626SOL    HW1 1938   3.455   3.886   3.190  0.8468 -2.9714 -0.5630
  626SOL    HW2 1939   3.593   3.844   3.145  1.4261  1.3384 -3.4584
  627SOL     OW 1940   1.865   0.631   1.468 -0.4686 -0.2337 -0.2744
  627SOL    HW1 1941   1.811   0.592   1.537  0.9039  0.7380  1.4484
  627SOL    HW2 1942   1.825   0.717   1.452 -0.7077 -0.4034 -0.5839
  628SOL     OW 1943   2.843   0.948   2.315 -0.0214 -0.1580 -0.0961
  628SOL    HW1 1944   2.893   1.029   2.319 -0.4716  0.1961 -1.2765
  628SOL    HW2 1945   2.909   0.879   2.305  0.2781  0.2647 -1.1968
  629SOL     OW 1946   4.717   0.879   3.737  0.6968  0.7762 -0.0838
  629SOL    HW1 1947   4.785   0.919   3.682  1.0642  0.4538  0.1262
  629SOL    HW2 1948   4.762   0.805   3.780 -0.1590 -0.3376 -1.0489
  630SOL     OW 1949   4.934   2.213   0.521 -0.4691 -0.1797 -0.0982
  630SOL    HW1 1950   4.929   2.123   0.488 -1.0456 -0.6759  1.3016
  630SOL    HW2 1951   4.848   2.250   0.503 -0.4800 -0.1455  0.0288
  631SOL     OW 1952   2.237   0.780   3.614  0.1340 -0.5939  0.5107
  631SOL    HW1 1953   2.329   0.759   3.598  0.3087 -0.2601  1.0528
  631SOL    HW2 1954   2.238   0.871   3.644 -0.4152 -0.4435  0.0949
  632SOL     OW 1955   0.927   3.039   1.459 -0.1356 -0.8610 -0.5873
  632SOL    HW1 1956   1.005   2.986   1.474  0.0062 -1.0899 -2.0076
  632SOL    HW2 1957   0.859   2.976   1.437 -1.3410 -0.8776  2.5828
  633SOL     OW 1958   1.451   0.509   0.249  0.0854  0.0409 -0.1282
  633SOL    HW1 1959   1.541   0.479   0.254  0.0723  0.1255  0.9689
  633SOL    HW2 1960   1.444   0.576   0.318 -0.8512 -0.0972 -0.0691
  634SOL     OW 1961   3.930   0.566   3.918 -0.0929  0.2829 -0.1506
  634SOL    HW1 1962   4.010   0.514   3.923  0.1022  0.6207  0.3327
  634SOL    HW2 1963   3.956   0.645   3.869 -0.0478  0.5243  0.2511
  635SOL     OW 1964   3.590   4.688   0.540 -0.0134 -0.4353  0.3967
  635SOL    HW1 1965   3.592   4.625   0.612 -0.2777 -0.6579  0.2122
  635SOL    HW2 1966   3.607   4.772   0.582  0.3203 -0.6248  0.6490
  636SOL     OW 1967   0.757   4.747   4.121  0.0696  0.1048 -0.3320
  636SOL    HW1 1968   0.842   4.726   4.083  0.4538  2.4366 -0.9450
  636SOL    HW2 1969   0.696   4.737   4.048  0.3611  1.5894 -0.8336
  637SOL     OW 1970   2.321   1.065   3.065 -0.5442 -0.0746 -0.0226
  637SOL    HW1 1971   2.241   1.092   3.019 -0.6780  1.5748  1.0702
  637SOL    HW2 1972   2.384   1.046   2.996 -1.6689 -0.7383 -0.8970
  638SOL     OW 1973   1.736   4.421   0.721 -0.2785 -0.4115  0.9948
  638SOL    HW1 1974   1.800   4.458   0.661 -1.5003  0.0336 -0.0894
  638SOL    HW2 1975   1.725   4.488   0.789  0.9942 -0.8511  1.6581
  639SOL     OW 1976   4.298   1.547   3.669 -0.6071 -0.8078 -0.5610
  639SOL    HW1 1977   4.321   1.547   3.762  2.7107 -0.8267 -1.2586
  639SOL    HW2 1978   4.268   1.458   3.652 -0.8735 -0.9162  0.4039
  640SOL     OW 1979   1.471   3.438   4.315 -0.2135  0.6385 -0.2314
  640SOL    HW1 1980   1.380   3.422   4.291  0.1875  0.8737 -2.0293
  640SOL    HW2 1981   1.488   3.375   4.386 -2.1923  1.6786  1.2553
  641SOL     OW 1982   2.538   4.526   1.328 -0.3347  0.0741  0.0866
  641SOL    HW1 1983   2.535   4.607   1.380  2.3331 -0.9221  2.0007
  641SOL    HW2 1984   2.504   4.459   1.387  0.1855 -0.6450 -0.4189
  642SOL     OW 1985   0.794   2.235   0.453 -0.6618 -0.0425 -0.1307
  642SOL    HW1 1986   0.866   2.219   0.514  0.3333  0.3752 -1.1607
  642SOL    HW2 1987   0.727   2.278   0.507 -0.0981 -0.3147  0.8179
  643SOL     OW 1988   0.965   2.697   2.617 -0.2757  0.2999 -0.4481
  643SOL    HW1 1989   1.009   2.619   2.583  1.0079  0.1729  1.3722
  643SOL    HW2 1990   1.006   2.770   2.570  0.8618  0.0733  0.1570
  644SOL     OW 1991   0.762   4.416   4.050 -1.1018  0.5179 -0.2077
  644SOL    HW1 1992   0.819   4.355   4.097 -0.9245  0.7238 -0.1554
  644SOL    HW2 1993   0.821   4.470   3.998 -1.1708  1.2758  0.4743
  645SOL     OW 1994   4.330   3.420   3.718  0.2654 -0.4245  0.1317
  645SOL    HW1 1995   4.343   3.476   3.641  3.9795 -0.5827  0.4523
  645SOL    HW2 1996   4.297   3.478   3.785  1.5969  0.8639 -0.2786
  646SOL     OW 1997   3.765   2.711   0.004  0.8129 -0.0505 -0.3087
  646SOL    HW1 1998   3.772   2.752   0.090  1.0288  0.4134 -0.5491
  646SOL    HW2 1999   3.769   2.783  -0.059 -1.6157 -0.1234 -0.6477
  647SOL     OW 2000   3.319   3.933   1.789 -0.2139 -0.2682  0.3559
  647SOL    HW1 2001   3.264   3.956   1.714 -0.6093 -0.1184  0.6835
  647SOL    HW2 2002   3.323   3.837   1.788  1.1784 -0.2241 -0.8329
  648SOL     OW 2003   2.640   4.156   3.814 -0.6788  0.1962 -0.4227
  648SOL    HW1 2004   2.696   4.201   3.876 -1.4400  0.2914  0.2156
  648SOL    HW2 2005   2.684   4.073   3.797 -0.6575 -0.0043  0.5578
  649SOL     OW 2006   5.019   3.195   0.083  0.7042 -0.2888 -0.4229
  649SOL    HW1 2007   4.981   3.283   0.083 -1.2776 -1.0598  1.2180
  649SOL    HW2 2008   5.108   3.208   0.115 -0.2750  0.9522  2.1395
  650SOL     OW 2009   4.541   4.743   2.181  0.2891  0.0889  0.2522
  650SOL    HW1 2010   4.469   4.773   2.236 -0.3385 -0.7095 -0.1122
  650SOL    HW2 2011   4.567   4.821   2.131 -2.5187 -0.3035 -2.0139
  651SOL     OW 2012   3.022   4.328   4.362  0.0714  0.6629  0.2045
  651SOL    HW1 2013   2.969   4.328   4.442  0.3046  2.6807  0.4233
  651SOL    HW2 2014   3.112   4.331   4.393  0.3056 -1.5174 -0.1664
  652SOL     OW 2015   0.551   3.737   4.006 -0.0666 -0.1600  0.1043
  652SOL    HW1 2016   0.471   3.748   3.956  0.1735 -0.7236 -0.4119
  652SOL    HW2 2017   0.535   3.660   4.061  0.3535 -0.6644 -0.4723
  653SOL     OW 2018   5.297   2.149   0.079 -0.1070 -0.1417 -0.6894
  653SOL    HW1 2019   5.336   2.220   0.029  1.0412  0.1387  0.5529
  653SOL    HW2 2020   5.253   2.095   0.014  1.5035  0.0958 -2.0286
  654SOL     OW 2021   1.821   3.350   0.322 -0.1372 -0.3560  0.2809
  654SOL    HW1 2022   1.770   3.405   0.263  1.3460  0.5098 -0.2484
  654SOL    HW2 2023   1.779   3.264   0.317 -0.3900 -0.1693 -1.6502
  655SOL     OW 2024   1.024   0.374   3.248 -0.2361  0.0200  0.1648
  655SOL    HW1 2025   1.066   0.330   3.174 -0.7517 -2.2430  1.1378
  655SOL    HW2 2026   0.932   0.352   3.240 -0.4177  0.4278  1.0508
  656SOL     OW 2027   0.831   1.016   1.915  0.2345  0.2251 -0.5747
  656SOL    HW1 2028   0.819   1.026   1.820  0.1707 -0.2838 -0.6187
  656SOL    HW2 2029   0.922   0.988   1.925  0.0269 -0.4437 -0.5336
  657SOL     OW 2030   1.947   3.091   2.396  0.3284 -0.0113  0.3655
  657SOL    HW1 2031   1.972   3.106   2.487  0.3957  1.3731  0.1540
  657SOL    HW2 2032   1.878   3.156   2.380 -1.1636 -1.6238  0.0116
  658SOL     OW 2033   5.392   1.848   4.024  0.7441  0.2563 -0.2873
  658SOL    HW1 2034   5.417   1.939   4.008 -1.0325  0.6494 -1.0667
  658SOL    HW2 2035   5.461   1.814   4.082  1.0224  2.3088  0.6757
  659SOL     OW 2036   5.219   4.030   1.869 -0.5284  0.1808  0.0786
  659SOL    HW1 2037   5.273   4.109   1.873  0.5805 -0.5068 -0.6732
  659SOL    HW2 2038   5.231   3.988   1.954 -0.6433  0.5219  0.2631
  660SOL     OW 2039   3.038   2.012   0.609  0.7050  0.0705 -0.1483
  660SOL    HW1 2040   3.031   1.934   0.555  1.6390 -1.0121  1.2194
  660SOL    HW2 2041   3.124   2.004   0.651 -0.1281  0.6636  1.7577
  661SOL     OW 2042   3.007   3.646   3.515  0.2940  0.0380 -0.0630
  661SOL    HW1 2043   3.058   3.654   3.595  0.1719 -0.7636  0.1022
  661SOL    HW2 2044   3.051   3.577   3.465  0.3646  0.5271 -0.6847
  662SOL     OW 2045   0.070   1.979   1.475  0.1061 -0.2995 -0.1665
  662SOL    HW1 2046   0.010   2.032   1.527  0.1913  0.0927 -0.4632
  662SOL    HW2 2047   0.021   1.899   1.455  0.5041 -1.0257  1.5724
  663SOL     OW 2048   3.087   4.297   0.235 -0.1274  0.3050  0.5149
  663SOL    HW1 2049   3.174   4.262   0.255  0.0148  0.0974 -0.4363
  663SOL    HW2 2050   3.032   4.265   0.307 -0.0062 -1.9365 -0.2938
  664SOL     OW 2051   2.236   0.711   1.540 -0.7260 -0.6102  0.4292
  664SOL    HW1 2052   2.265   0.620   1.527 -0.2904 -0.3953 -0.1322
  664SOL    HW2 2053   2.163   0.723   1.480 -0.6978 -0.5460  0.4074
  665SOL     OW 2054   4.193   0.742   0.913 -0.1883  0.4721  0.2731
  665SOL    HW1 2055   4.149   0.755   0.997 -1.1510  0.1881 -0.1754
  665SOL    HW2 2056   4.162   0.815   0.859  2.5046  2.2557  0.9494
  666SOL     OW 2057   4.925   2.948   2.656  0.6348 -0.0932  0.0927
  666SOL    HW1 2058   4.972   3.030   2.639  1.8142 -0.7035  0.2964
  666SOL    HW2 2059   4.832   2.972   2.654  0.7828  0.7072 -2.9837
  667SOL     OW 2060   1.402   3.001   3.100 -0.2342 -0.4327  0.5234
  667SOL    HW1 2061   1.369   3.053   3.027  2.2837  0.3923 -0.1380
  667SOL    HW2 2062   1.358   3.037   3.177 -0.3333  1.0569 -0.1931
  668SOL     OW 2063   2.371   4.220   3.731  0.2174  0.6033 -0.2109
  668SOL    HW1 2064   2.304   4.165   3.772  0.3348  0.4098 -0.2750
  668SOL    HW2 2065   2.454   4.189   3.767  0.3494  0.2220 -0.8156
  669SOL     OW 2066   3.429   3.198   4.396  0.2780 -0.3375 -0.4236
  669SOL    HW1 2067   3.366   3.269   4.399  0.1793 -0.3871 -1.2451
  669SOL    HW2 2068   3.432   3.171   4.304  1.3979 -0.4247 -0.3788
  670SOL     OW 2069   4.239   0.622   4.449  0.0220  0.2852 -0.2980
  670SOL    HW1 2070   4.203   0.637   4.362  1.1668 -0.9624 -1.0268
  670SOL    HW2 2071   4.305   0.554   4.436 -0.5496 -0.7373  1.7325
  671SOL     OW 2072   3.057   3.717   4.241  0.2927  0.3924  0.0807
  671SOL    HW1 2073   3.030   3.634   4.202  0.9655  0.3089 -0.2258
  671SOL    HW2 2074   3.152   3.716   4.236  0.2768  1.7420 -1.1513
  672SOL     OW 2075   2.890   1.361   1.412  0.0967 -0.3308  0.3387
  672SOL    HW1 2076   2.945   1.363   1.490  0.2320 -2.3351  0.3676
  672SOL    HW2 2077   2.801   1.352   1.446  0.0236  0.1583  0.2755
  673SOL     OW 2078   2.064   3.888   2.149  0.1998  0.5039  0.1473
  673SOL    HW1 2079   1.992   3.944   2.179  0.1722  1.4469 -1.5542
  673SOL    HW2 2080   2.026   3.801   2.143 -1.1706  1.1518 -1.7203
  674SOL     OW 2081   4.275   0.034   2.230 -0.0204 -0.2470  0.0301
  674SOL    HW1 2082   4.206   0.012   2.168  0.1583  0.0406 -0.2777
  674SOL    HW2 2083   4.317   0.112   2.192  1.0556 -0.9418 -0.2702
  675SOL     OW 2084   0.856   5.038   1.484 -0.2914  0.6988 -0.2431
  675SOL    HW1 2085   0.937   5.087   1.467  0.0749  0.6927  1.3379
  675SOL    HW2 2086   0.879   4.977   1.554 -1.4503  0.0900 -0.3654
  676SOL     OW 2087   3.870   5.081   3.862 -0.1658  0.1793  0.0401
  676SOL    HW1 2088   3.908   5.135   3.931 -2.2164  1.6697  0.0615
  676SOL    HW2 2089   3.863   4.994   3.902  1.0037  0.4016  0.8054
  677SOL     OW 2090   3.465   3.967   0.737  0.2487 -0.1900 -0.2454
  677SOL    HW1 2091   3.413   4.003   0.665 -0.3059 -1.1115 -0.3324
  677SOL    HW2 2092   3.545   3.936   0.695 -0.3858 -1.3954 -0.6160
  678SOL     OW 2093   1.476   4.999   2.031  0.4573  0.1934  0.0476
  678SOL    HW1 2094   1.440   5.088   2.033  1.2822  0.5758 -1.2843
  678SOL    HW2 2095   1.484   4.974   2.123  0.7271  1.7142  0.4553
  679SOL     OW 2096   5.347   3.017   4.425 -0.4073 -0.4761 -0.1053
  679SOL    HW1 2097   5.354   3.095   4.370 -2.8734 -0.6387 -0.7695
  679SOL    HW2 2098   5.337   3.051   4.514 -1.0955 -0.0436 -0.3434
  680SOL     OW 2099   2.114   3.759   2.696  0.4568  0.2727 -0.3079
  680SOL    HW1 2100   2.100   3.798   2.782  2.5021  0.6140 -0.0622
  680SOL    HW2 2101   2.079   3.824   2.635  2.1540  1.7572  0.1743
  681SOL     OW 2102   2.002   2.846   0.107  0.0195 -0.1653  0.4671
  681SOL    HW1 2103   1.931   2.880   0.161  2.7859  1.8949  3.1352
  681SOL    HW2 2104   2.018   2.758   0.141  1.7170  1.0895  3.2943
  682SOL     OW 2105   5.292   2.464   0.101 -0.1857  0.1297 -0.2509
  682SOL    HW1 2106   5.357   2.533   0.093 -0.8841  0.7220 -0.9536
  682SOL    HW2 2107   5.287   2.446   0.195  0.1044  0.9218 -0.0806
  683SOL     OW 2108   4.138   3.462   0.984  0.2322  0.1877 -0.1804
  683SOL    HW1 2109   4.148   3.405   0.908 -0.5413 -1.0343  0.5886
  683SOL    HW2 2110   4.173   3.411   1.057  2.1389  1.8349  0.1345
  684SOL     OW 2111   0.370   1.886   1.743 -0.3299  0.2527  0.0512
  684SOL    HW1 2112   0.314   1.839   1.804  0.8993 -0.4301  0.6866
  684SOL    HW2 2113   0.348   1.979   1.756 -0.3936  0.0872  1.2277
  685SOL     OW 2114   4.340   4.857   0.857  0.1214  0.5573 -0.1171
  685SOL    HW1 2115   4.286   4.827   0.784  1.0991  1.0117 -1.0554
  685SOL    HW2 2116   4.316   4.799   0.930 -0.5424 -0.2055 -0.9215
  686SOL     OW 2117   1.297   2.283   3.717 -0.4627  0.2591  0.2875
  686SOL    HW1 2118   1.327   2.325   3.636  0.3389 -1.2960 -0.2739
  686SOL    HW2 2119   1.277   2.355   3.776  0.9763  1.4251 -0.5748
  687SOL     OW 2120   0.033   1.950   2.534  0.2654  0.2240  0.0173
  687SOL    HW1 2121   0.008   2.032   2.577 -0.8280  0.1941 -0.5222
  687SOL    HW2 2122   0.010   1.882   2.598  0.1013  0.2739  0.0126
  688SOL     OW 2123   2.529   0.568   2.171  0.7189 -0.0931  0.1414
  688SOL    HW1 2124   2.590   0.642   2.174  1.1103 -0.4375  1.6062
  688SOL    HW2 2125   2.524   0.545   2.078  0.0475  2.1796 -0.4366
  689SOL     OW 2126   2.782   3.001   2.347  0.7147 -0.0735  0.5667
  689SOL    HW1 2127   2.864   2.953   2.338  0.8829  0.3200 -0.0281
  689SOL    HW2 2128   2.715   2.933   2.347  1.0619 -0.4409  1.6206
  690SOL     OW 2129   0.337   2.747   0.947  0.2388 -1.2472 -0.1577
  690SOL    HW1 2130   0.252   2.786   0.926  0.1045 -1.1603  0.5290
  690SOL    HW2 2131   0.317   2.679   1.012  0.6827 -1.2926 -0.0659
  691SOL     OW 2132   3.279   1.493   2.657 -0.6411  0.5939  0.1767
  691SOL    HW1 2133   3.242   1.575   2.689  0.2078  0.3389  1.8994
  691SOL    HW2 2134   3.210   1.428   2.672 -0.6581  0.6762  0.4565
  692SOL     OW 2135   4.437   2.970   2.574 -0.0957  0.0412  0.2119
  692SOL    HW1 2136   4.389   2.979   2.656 -0.1260 -0.8109  0.3019
  692SOL    HW2 2137   4.393   2.898   2.529 -0.1675  0.5910 -0.6216
  693SOL     OW 2138   5.111   3.344   0.458  0.2573  0.5058  0.6641
  693SOL    HW1 2139   5.161   3.266   0.483 -0.2201  0.4282  1.3876
  693SOL    HW2 2140   5.021   3.323   0.481  0.0737  1.1244  0.5052
  694SOL     OW 2141   4.761   2.138   3.796 -0.0422  0.1101 -0.4749
  694SOL    HW1 2142   4.850   2.102   3.788 -0.9738 -2.1443 -1.6012
  694SOL    HW2 2143   4.754   2.164   3.888  1.4253 -0.7019 -0.1023
  695SOL     OW 2144   2.615   2.774   2.319  0.2372  0.3000  0.1714
  695SOL    HW1 2145   2.620   2.679   2.309 -0.5438  0.1528  1.0115
  695SOL    HW2 2146   2.521   2.793   2.320  0.3472  0.8921  1.4957
  696SOL     OW 2147   3.285   4.228   4.191  0.1317 -0.2937  0.0384
  696SOL    HW1 2148   3.265   4.304   4.138 -2.4519 -0.1800  0.9968
  696SOL    HW2 2149   3.277   4.259   4.281 -2.8533 -1.9497  0.4921
  697SOL     OW 2150   4.011   2.945   2.568  0.4351 -0.7274 -0.0609
  697SOL    HW1 2151   3.917   2.932   2.558  0.1931 -0.6999  1.8205
  697SOL    HW2 2152   4.050   2.868   2.528 -0.2277  0.2382 -2.8052
  698SOL     OW 2153   3.221   1.605   2.980  0.1661  0.5630  0.2864
  698SOL    HW1 2154   3.183   1.687   2.950 -1.2980  0.1135  0.8361
  698SOL    HW2 2155   3.251   1.623   3.069 -0.5156  0.3970  0.5509
  699SOL     OW 2156   2.366   0.229   3.334 -0.4399 -0.1308 -0.0636
  699SOL    HW1 2157   2.394   0.309   3.378 -0.6603  0.2287 -0.5649
  699SOL    HW2 2158   2.439   0.207   3.277 -1.4169  1.2372 -1.9519
  700SOL     OW 2159   3.580   2.662   1.122 -0.3751  1.0768  0.4968
  700SOL    HW1 2160   3.637   2.627   1.190 -1.1267 -0.6049  0.3088
  700SOL    HW2 2161   3.584   2.757   1.134 -1.0720  0.8500  3.4264
  701SOL     OW 2162   0.476   1.517   4.133 -0.4868  0.2944 -0.3693
  701SOL    HW1 2163   0.545   1.498   4.196  1.2303  0.6960 -2.0109
  701SOL    HW2 2164   0.395   1.490   4.176  0.5266  0.9594  2.1456
  702SOL     OW 2165   1.861   3.946   3.655  0.3102  0.0923  0.0070
  702SOL    HW1 2166   1.935   3.888   3.636 -0.2128 -0.2130 -1.1578
  702SOL    HW2 2167   1.799   3.930   3.585 -0.0386  1.7832 -0.1159
  703SOL     OW 2168   1.828   4.382   0.042 -0.1955  0.3631  0.2824
  703SOL    HW1 2169   1.869   4.463   0.010  0.0164 -0.4374 -1.6481
  703SOL    HW2 2170   1.734   4.397   0.033 -0.3764  1.6188  3.2305
  704SOL     OW 2171   0.286   1.471   0.007 -0.5752  0.0130  0.1887
  704SOL    HW1 2172   0.252   1.395   0.054 -0.9200  0.1703  0.1985
  704SOL    HW2 2173   0.210   1.506  -0.039 -0.1961 -0.2928 -0.6961
  705SOL     OW 2174   0.777   2.730   2.810 -0.0474 -0.7172  0.3906
  705SOL    HW1 2175   0.839   2.752   2.879  0.0454  1.6631 -0.3750
  705SOL    HW2 2176   0.832   2.716   2.733 -0.3239 -0.8005  0.2066
  706SOL     OW 2177   0.805   5.100   2.554 -0.3110  0.0544  0.0200
  706SOL    HW1 2178   0.756   5.040   2.498  0.0783  0.5855 -0.9168
  706SOL    HW2 2179   0.888   5.055   2.570 -0.4885 -0.1721  0.3313
  707SOL     OW 2180   1.300   0.960   3.974 -0.4288  0.7820  0.1440
  707SOL    HW1 2181   1.236   1.028   3.955 -0.4988  0.0462 -2.7411
  707SOL    HW2 2182   1.360   0.962   3.899  0.2687 -1.5201  0.5597
  708SOL     OW 2183   3.016   3.180   3.287 -0.1286  0.5843 -0.1653
  708SOL    HW1 2184   2.921   3.171   3.288 -0.0258 -1.3773 -1.7867
  708SOL    HW2 2185   3.048   3.098   3.326  0.8752  0.3413 -1.4346
  709SOL     OW 2186   3.314   2.750   3.324 -0.3337 -0.3197 -0.1542
  709SOL    HW1 2187   3.223   2.779   3.335  0.1020  1.6230 -1.1874
  709SOL    HW2 2188   3.344   2.731   3.413 -1.1856  0.8870  0.4192
  710SOL     OW 2189   0.700   3.227   0.368  0.3914  0.7403 -0.3593
  710SOL    HW1 2190   0.689   3.315   0.404  0.4233  0.2966  0.7688
  710SOL    HW2 2191   0.628   3.177   0.407 -0.8686  0.7094 -2.5509
  711SOL     OW 2192   5.048   4.078   2.621  0.8542  0.0196  0.1636
  711SOL    HW1 2193   5.098   4.032   2.689  0.5442  0.0701  0.4251
  711SOL    HW2 2194   4.957   4.053   2.637  0.7804  0.0331 -0.2331
  712SOL     OW 2195   1.860   1.593   2.782 -0.0278  0.4161  0.2461
  712SOL    HW1 2196   1.939   1.616   2.832 -0.2766  0.7457  0.4963
  712SOL    HW2 2197   1.854   1.660   2.714  0.6182 -0.3520 -0.5869
  713SOL     OW 2198   3.847   1.508   2.677 -0.6770  0.2072  0.0168
  713SOL    HW1 2199   3.890   1.574   2.623  1.9086 -1.6088 -0.3458
  713SOL    HW2 2200   3.824   1.438   2.616  1.1099 -1.3111  0.9743
  714SOL     OW 2201   3.394   1.075   0.553  0.3192 -0.0469 -0.2017
  714SOL    HW1 2202   3.446   1.126   0.491 -0.4259  1.0877  0.0790
  714SOL    HW2 2203   3.342   1.140   0.600  1.6066 -0.7156  2.3802
  715SOL     OW 2204   4.316   0.067   4.308 -0.1763 -0.0257 -0.3844
  715SOL    HW1 2205   4.238   0.015   4.331 -1.6966  1.5351 -1.7321
  715SOL    HW2 2206   4.333   0.045   4.216  0.3210  0.4413 -0.4082
  716SOL     OW 2207   3.730   3.299   2.744 -0.4157  0.2071 -0.1929
  716SOL    HW1 2208   3.635   3.309   2.736 -0.5343 -1.5241 -1.6847
  716SOL    HW2 2209   3.742   3.211   2.779  0.6588  0.5167  0.2688
  717SOL     OW 2210   2.159   0.602   0.477 -0.2403  0.0653 -0.4749
  717SOL    HW1 2211   2.209   0.523   0.454  0.1947  0.5719 -1.2957
  717SOL    HW2 2212   2.185   0.621   0.567 -1.3117 -1.4477  0.2025
  718SOL     OW 2213   4.515   2.920   0.231  0.2843  0.3747  0.6130
  718SOL    HW1 2214   4.584   2.945   0.292  0.2418  2.5575 -0.1417
  718SOL    HW2 2215   4.435   2.957   0.269 -0.4890 -1.9073  1.3461
  719SOL     OW 2216   5.372   3.733   0.449  0.1164  0.3892 -0.4024
  719SOL    HW1 2217   5.295   3.689   0.414 -0.8558  0.8258  1.1279
  719SOL    HW2 2218   5.346   3.764   0.535  1.9613  0.6794  0.1007
  720SOL     OW 2219   0.298   1.833   3.954  0.1880  0.6362  0.5505
  720SOL    HW1 2220   0.296   1.828   3.859  0.8386  0.7542  0.5263
  720SOL    HW2 2221   0.312   1.926   3.973 -3.5329  1.2806  0.8447
  721SOL     OW 2222   1.350   3.875   0.673  0.1384  0.3053 -0.0970
  721SOL    HW1 2223   1.366   3.969   0.686  1.1332  0.3238 -1.2856
  721SOL    HW2 2224   1.417   3.831   0.725  0.7463  0.2923 -0.8792
  722SOL     OW 2225   5.268   3.614   3.047 -0.0121  0.0590 -0.9061
  722SOL    HW1 2226   5.333   3.548   3.072  1.5490  0.3889 -3.6918
  722SOL    HW2 2227   5.317   3.679   2.998 -2.1308  1.4218 -1.3455
  723SOL     OW 2228   2.426   2.074   3.057  0.1135  0.4473 -0.1373
  723SOL    HW1 2229   2.339   2.078   3.096 -0.3870  2.7571 -1.3271
  723SOL    HW2 2230   2.425   1.995   3.003 -0.7569 -0.2738  0.9026
  724SOL     OW 2231   0.631   1.450   4.382 -0.1777 -0.4454 -0.1228
  724SOL    HW1 2232   0.672   1.382   4.329 -0.3937 -0.5169 -0.2008
  724SOL    HW2 2233   0.686   1.457   4.460  0.8867  0.5619 -0.9301
  725SOL     OW 2234   4.259   4.454   4.037  0.0417 -0.0626 -0.4621
  725SOL    HW1 2235   4.169   4.429   4.015  0.5975 -1.2300 -1.5183
  725SOL    HW2 2236   4.284   4.517   3.969  0.7741 -1.4836 -1.5683
  726SOL     OW 2237   1.459   2.730   2.790  0.1131  0.4079 -0.5130
  726SOL    HW1 2238   1.465   2.693   2.702  0.6270 -0.1918 -0.2256
  726SOL    HW2 2239   1.400   2.671   2.837 -0.2193  0.7678 -0.4714
  727SOL     OW 2240   0.376   4.456   3.551 -0.2299  0.6613  0.3080
  727SOL    HW1 2241   0.391   4.362   3.562 -0.3705  0.8963  3.0239
  727SOL    HW2 2242   0.313   4.462   3.479  2.0251 -1.0909 -2.0091
  728SOL     OW 2243   4.895   4.336   1.421 -0.0831  0.3834  0.6318
  728SOL    HW1 2244   4.907   4.373   1.334 -0.2338  0.8821  0.8164
  728SOL    HW2 2245   4.890   4.242   1.407 -0.0945  0.4603  0.1035
  729SOL     OW 2246   4.579   2.208   1.430 -0.1985  0.4979 -0.4762
  729SOL    HW1 2247   4.656   2.198   1.486 -0.6855 -0.5442  0.0349
  729SOL    HW2 2248   4.505   2.210   1.490 -0.6814 -0.0029 -1.0374
  730SOL     OW 2249   4.552   0.709   4.425 -0.1813 -0.0642  0.0694
  730SOL    HW1 2250   4.595   0.783   4.468  0.9786  0.7449 -2.2821
  730SOL    HW2 2251   4.479   0.747   4.378  1.0761 -0.1225 -2.0728
  731SOL     OW 2252   0.505   2.773   2.811  0.3133  0.2692  0.4546
  731SOL    HW1 2253   0.497   2.705   2.744  0.1350  1.0792 -0.3606
  731SOL    HW2 2254   0.599   2.781   2.825  0.4111  0.8119 -0.4569
  732SOL     OW 2255   3.250   0.666   4.328 -0.1396 -0.0374  0.0643
  732SOL    HW1 2256   3.186   0.656   4.258  0.8195  1.6946 -1.1268
  732SOL    HW2 2257   3.213   0.617   4.402 -1.5887 -1.1828 -1.3610
  733SOL     OW 2258   2.389   4.216   4.093 -0.4192  0.1507 -0.3810
  733SOL    HW1 2259   2.294   4.208   4.086 -0.3787 -0.9833  0.1313
  733SOL    HW2 2260   2.422   4.127   4.082  0.6916  0.6958 -1.7753
  734SOL     OW 2261   5.156   4.789   0.287 -0.7843 -0.4746 -0.1393
  734SOL    HW1 2262   5.243   4.800   0.325 -1.7142  2.7269  1.4650
  734SOL    HW2 2263   5.166   4.816   0.196 -0.3929  1.9706  0.5538
  735SOL     OW 2264   4.632   1.819   1.504  0.9120 -0.0462 -0.3219
  735SOL    HW1 2265   4.693   1.802   1.575 -0.3783 -1.7903  0.4243
  735SOL    HW2 2266   4.657   1.906   1.472  3.5637 -0.5416  0.1256
  736SOL     OW 2267   2.477   3.367   1.421 -0.2188 -0.2268 -0.3132
  736SOL    HW1 2268   2.405   3.375   1.484 -0.5562  0.4725 -0.7767
  736SOL    HW2 2269   2.525   3.289   1.449  0.2791  0.6716  1.4792
  737SOL     OW 2270   3.233   1.356   1.224 -0.2822 -0.0958 -0.0899
  737SOL    HW1 2271   3.192   1.423   1.279  0.4617 -0.1478  0.5419
  737SOL    HW2 2272   3.159   1.306   1.189 -0.9703  2.1671 -2.0799
  738SOL     OW 2273   3.747   2.841   2.616  0.6895  0.2853 -0.1283
  738SOL    HW1 2274   3.802   2.779   2.664  1.2055  0.5004 -0.4309
  738SOL    HW2 2275   3.715   2.791   2.541 -0.3222 -0.1271  0.5493
  739SOL     OW 2276   5.266   1.374   4.308  0.0508  0.0530 -0.1309
  739SOL    HW1 2277   5.270   1.442   4.242  0.7745 -0.2985 -0.4605
  739SOL    HW2 2278   5.329   1.308   4.278 -0.9468 -0.9601 -0.0494
  740SOL     OW 2279   2.528   3.135   4.011  0.1974 -0.1688 -0.0406
  740SOL    HW1 2280   2.569   3.053   4.035 -1.3125 -1.0738 -0.3699
  740SOL    HW2 2281   2.440   3.130   4.049  0.1017  1.3192 -0.0144
  741SOL     OW 2282   4.287   2.862   4.111 -0.3868  0.1372 -0.4761
  741SOL    HW1 2283   4.206   2.888   4.066  0.5442  1.3985 -1.5182
  741SOL    HW2 2284   4.355   2.917   4.070  0.7180  0.3951  1.5956
  742SOL     OW 2285   4.422   0.209   2.464 -0.5847 -0.5637 -0.0317
  742SOL    HW1 2286   4.507   0.245   2.488 -1.6088  0.7477  1.8169
  742SOL    HW2 2287   4.437   0.115   2.455  1.1503 -0.2915 -0.2565
  743SOL     OW 2288   1.236   4.682   1.989  0.0823  0.0849  0.1368
  743SOL    HW1 2289   1.185   4.619   1.938 -1.0495 -0.3280  1.7087
  743SOL    HW2 2290   1.325   4.644   1.991  0.0909 -0.0295 -1.2320
  744SOL     OW 2291   0.796   1.301   2.024  0.1204 -0.2864  0.2152
  744SOL    HW1 2292   0.837   1.360   1.960 -1.9004  0.7810 -0.1882
  744SOL    HW2 2293   0.859   1.230   2.035  1.5189  0.6514 -1.2495
  745SOL     OW 2294   1.226   0.961   1.024 -0.0188 -0.1078 -0.5787
  745SOL    HW1 2295   1.221   0.878   0.976 -2.4244  0.7584 -1.9997
  745SOL    HW2 2296   1.138   0.975   1.057  0.5002  1.5771  0.2037
  746SOL     OW 2297   2.287   2.400   2.833  0.9706  0.4281 -0.0523
  746SOL    HW1 2298   2.375   2.394   2.870  1.0929 -0.5534 -0.4687
  746SOL    HW2 2299   2.231   2.421   2.907  1.3054 -0.8278  0.5798
  747SOL     OW 2300   3.585   3.975   3.478  0.1808  0.1068 -0.3179
  747SOL    HW1 2301   3.666   4.017   3.508  0.8618 -1.1240 -0.3707
  747SOL    HW2 2302   3.609   3.884   3.461 -1.4302 -0.5514  0.6232
  748SOL     OW 2303   4.296   1.774   1.706 -0.1194 -0.5353  0.4325
  748SOL    HW1 2304   4.245   1.693   1.697  0.2291 -0.6986 -0.1096
  748SOL    HW2 2305   4.299   1.811   1.618 -0.2833  0.0815  0.6775
  749SOL     OW 2306   3.014   4.832   1.783 -0.4030 -0.2860 -0.0935
  749SOL    HW1 2307   3.072   4.906   1.767 -1.3248  0.5328  0.2209
  749SOL    HW2 2308   3.064   4.773   1.840  0.9641 -0.7422 -1.6897
  750SOL     OW 2309   2.537   4.263   0.076 -0.1967  0.3866 -0.1117
  750SOL    HW1 2310   2.502   4.318   0.006 -0.4210  1.7201  1.0086
  750SOL    HW2 2311   2.471   4.268   0.145 -1.7049 -3.6728 -0.9559
  751SOL     OW 2312   1.725   0.420   0.600  0.1523  0.2197 -0.3274
  751SOL    HW1 2313   1.797   0.483   0.607  1.3069 -0.6777 -3.0399
  751SOL    HW2 2314   1.661   0.463   0.543  0.0975 -0.3081 -0.6695
  752SOL     OW 2315   2.758   2.939   1.183 -0.1370 -0.2841  0.1250
  752SOL    HW1 2316   2.671   2.955   1.145  0.0297  1.8011  0.4834
  752SOL    HW2 2317   2.817   2.992   1.130  0.8526 -1.2422  0.2461
  753SOL     OW 2318   4.695   3.858   0.231  0.0744  0.0054 -0.2667
  753SOL    HW1 2319   4.729   3.892   0.149 -0.3948  0.8474 -0.1284
  753SOL    HW2 2320   4.772   3.846   0.286  0.3022  0.3442 -0.5074
  754SOL     OW 2321   0.544   4.477   3.862  0.1648  0.3833 -0.3341
  754SOL    HW1 2322   0.568   4.435   3.780 -1.7363 -0.3016 -0.5754
  754SOL    HW2 2323   0.616   4.456   3.922  0.5400 -0.9270 -1.2220
  755SOL     OW 2324   0.975   4.932   1.708  0.3734  0.5083 -0.1554
  755SOL    HW1 2325   1.016   4.992   1.770  1.2882  0.3694 -0.6123
  755SOL    HW2 2326   0.942   4.860   1.763 -1.7893  1.9209  0.5422
  756SOL     OW 2327   2.264   2.900   1.915  0.4966 -0.0346  0.4720
  756SOL    HW1 2328   2.286   2.976   1.969 -1.1900 -0.1689  1.4003
  756SOL    HW2 2329   2.296   2.922   1.828  0.9527  1.2974  0.9554
  757SOL     OW 2330   3.399   0.336   4.080 -0.0777  0.1180 -0.3472
  757SOL    HW1 2331   3.342   0.323   4.155  0.0910 -0.0163 -0.2395
  757SOL    HW2 2332   3.468   0.394   4.112  1.0616 -1.4561  0.1799
  758SOL     OW 2333   1.061   1.805   0.082  0.1349 -0.7381 -0.2613
  758SOL    HW1 2334   1.067   1.737   0.015 -0.8194 -1.9004  0.8020
  758SOL    HW2 2335   1.088   1.885   0.037  2.1686 -1.9339 -1.3144
  759SOL     OW 2336   1.920   1.974   0.280 -0.4506 -0.0157  0.5065
  759SOL    HW1 2337   1.886   1.906   0.338  1.4170 -3.3145 -1.8688
  759SOL    HW2 2338   1.848   1.994   0.220  0.0134 -3.0983 -1.2843
  760SOL     OW 2339   5.234   2.012   0.867  0.2123 -0.3641  0.3507
  760SOL    HW1 2340   5.192   2.097   0.868  3.3235  1.3384 -0.2289
  760SOL    HW2 2341   5.210   1.972   0.950 -2.2349  0.5360  0.1482
  761SOL     OW 2342   2.040   0.765   4.365 -0.1885  0.1299 -0.5171
  761SOL    HW1 2343   2.080   0.825   4.428 -0.1413  0.4669 -0.8628
  761SOL    HW2 2344   2.112   0.711   4.333 -0.2123 -0.0402 -0.2866
  762SOL     OW 2345   0.279   3.771   3.937  0.7355 -0.1374 -0.3609
  762SOL    HW1 2346   0.196   3.790   3.894  0.7233  0.4857 -0.0743
  762SOL    HW2 2347   0.271   3.681   3.967 -0.4450  0.4067  1.0499
  763SOL     OW 2348   5.395   3.325   4.267 -0.5246 -0.4114  0.1114
  763SOL    HW1 2349   5.303   3.315   4.244 -0.3189  2.1205 -2.1884
  763SOL    HW2 2350   5.400   3.408   4.315  0.6226 -0.3373 -0.0919
  764SOL     OW 2351   5.001   4.807   0.873 -0.4981 -0.3086  0.1700
  764SOL    HW1 2352   5.039   4.888   0.840  0.6972 -0.9211 -0.0291
  764SOL    HW2 2353   5.002   4.817   0.968 -1.7824  0.5079  0.1266
  765SOL     OW 2354   4.234   0.461   1.183 -0.1092  0.0464  0.0974
  765SOL    HW1 2355   4.144   0.450   1.212  0.3722 -1.2342  1.2271
  765SOL    HW2 2356   4.283   0.483   1.263  0.7987 -0.7600 -0.2126
  766SOL     OW 2357   2.025   4.552   3.648  0.7726 -0.1988 -0.4089
  766SOL    HW1 2358   2.120   4.564   3.638  0.5760  2.9186  0.2320
  766SOL    HW2 2359   2.015   4.518   3.737  1.2834 -0.6219 -0.5057
  767SOL     OW 2360   4.091   4.935   3.744 -0.2189  0.2503 -0.3727
  767SOL    HW1 2361   4.016   4.994   3.753 -1.0640 -0.9978  1.6617
  767SOL    HW2 2362   4.152   4.981   3.687 -1.1941  2.7000  0.4424
  768SOL     OW 2363   4.138   4.429   1.061 -0.7243  0.4475  0.3063
  768SOL    HW1 2364   4.187   4.348   1.072 -0.1897  0.8540  0.9848
  768SOL    HW2 2365   4.049   4.400   1.040 -0.4444 -0.3026  0.1166
  769SOL     OW 2366   2.447   1.262   2.829  0.5478 -0.2375 -0.1687
  769SOL    HW1 2367   2.363   1.308   2.829  0.0918 -1.0496 -0.5367
  769SOL    HW2 2368   2.454   1.226   2.740  0.6906 -1.2279  0.2389
  770SOL     OW 2369   1.403   1.032   1.217  0.2867  0.0720 -0.0206
  770SOL    HW1 2370   1.480   0.986   1.184 -0.4370  0.1228 -1.9050
  770SOL    HW2 2371   1.335   1.017   1.151 -1.2765  0.2222  1.4598
  771SOL     OW 2372   2.819   2.220   3.725  0.2177 -0.0040 -0.6287
  771SOL    HW1 2373   2.830   2.127   3.709 -1.0636 -0.3210  0.1148
  771SOL    HW2 2374   2.751   2.224   3.793 -1.0040  1.5078 -1.8480
  772SOL     OW 2375   1.205   4.792   0.298 -0.0281 -0.5849  0.2411
  772SOL    HW1 2376   1.116   4.821   0.275 -0.0785 -1.2529 -0.4453
  772SOL    HW2 2377   1.194   4.743   0.379 -0.1673 -0.0044  0.5797
  773SOL     OW 2378   2.281   0.066   3.524  0.2333  0.3884  0.1449
  773SOL    HW1 2379   2.337  -0.009   3.544 -0.4388 -0.2056 -0.1731
  773SOL    HW2 2380   2.314   0.099   3.441  1.1618  1.0645  0.7649
  774SOL     OW 2381   4.866   2.689   4.222 -0.1530 -0.1516  0.7558
  774SOL    HW1 2382   4.797   2.740   4.180  0.8907  0.0485 -0.8171
  774SOL    HW2 2383   4.838   2.598   4.213  0.7023 -0.2638 -1.8691
  775SOL     OW 2384   0.970   3.298   2.890 -0.1363 -0.1954  0.9107
  775SOL    HW1 2385   1.008   3.235   2.951  0.5859 -0.2558  0.4150
  775SOL    HW2 2386   1.015   3.281   2.808 -1.5939 -0.5894  0.1615
  776SOL     OW 2387   1.510   1.427   1.046  0.3497  0.3894 -0.3539
  776SOL    HW1 2388   1.568   1.351   1.034 -0.5368 -0.6003  1.1611
  776SOL    HW2 2389   1.448   1.422   0.974 -0.8919 -1.5436  0.7453
  777SOL     OW 2390   0.521   1.488   3.186  1.0714 -0.3885 -0.1696
  777SOL    HW1 2391   0.587   1.544   3.145 -3.0133  3.6567 -2.1789
  777SOL    HW2 2392   0.492   1.430   3.115  0.2231  0.2665 -0.3805
  778SOL     OW 2393   3.846   4.386   2.067  0.6935  0.3118 -0.1037
  778SOL    HW1 2394   3.751   4.379   2.082  0.3335  1.2527 -1.7532
  778SOL    HW2 2395   3.868   4.473   2.100  0.9383  0.2212 -0.0292
  779SOL     OW 2396   5.391   1.454   3.342  0.4152  0.1385 -0.3454
  779SOL    HW1 2397   5.438   1.450   3.259 -0.5687 -0.2407 -0.9124
  779SOL    HW2 2398   5.448   1.410   3.405  1.4187  0.9117 -0.6803
  780SOL     OW 2399   1.274   2.196   0.732  0.3489 -0.4474  0.4746
  780SOL    HW1 2400   1.303   2.229   0.647  0.0789  0.7481  0.8304
  780SOL    HW2 2401   1.278   2.272   0.790 -2.4782 -0.4290  0.7814
  781SOL     OW 2402   1.693   3.206   0.094 -0.0350 -0.8161 -0.2379
  781SOL    HW1 2403   1.671   3.281   0.038 -1.0365 -0.7629  0.1977
  781SOL    HW2 2404   1.760   3.158   0.045  2.2998  1.5218  0.4303
  782SOL     OW 2405   2.198   0.044   0.527  0.2953 -0.8214  0.2030
  782SOL    HW1 2406   2.167   0.131   0.552 -0.1559 -0.8440 -0.2462
  782SOL    HW2 2407   2.159  -0.014   0.592  0.0593 -0.7579  0.1199
  783SOL     OW 2408   3.310   3.719   3.030  0.4039  0.3616 -0.2473
  783SOL    HW1 2409   3.248   3.646   3.019  0.8713  0.0239 -0.7128
  783SOL    HW2 2410   3.393   3.676   3.051  0.7273  0.7538 -0.7212
  784SOL     OW 2411   4.269   0.930   0.275  0.2502  0.3756 -0.6373
  784SOL    HW1 2412   4.235   0.857   0.222 -0.9688  0.8042 -0.4786
  784SOL    HW2 2413   4.204   0.999   0.265 -0.1283  0.4137  1.5478
  785SOL     OW 2414   3.705   2.929   2.118 -0.0737 -0.2501  0.1808
  785SOL    HW1 2415   3.775   2.984   2.153 -1.1717  1.2337  0.2028
  785SOL    HW2 2416   3.672   2.978   2.042 -0.6618 -1.2114 -0.1985
  786SOL     OW 2417   4.172   4.161   3.791 -0.3342  0.3925 -0.2685
  786SOL    HW1 2418   4.104   4.228   3.789  0.5485  1.3486  0.2398
  786SOL    HW2 2419   4.251   4.209   3.817 -0.0841 -1.2234  2.3073
  787SOL     OW 2420   2.844   0.279   2.915  0.1357 -0.0871 -0.1587
  787SOL    HW1 2421   2.862   0.312   3.004  2.3520  2.2279 -1.3202
  787SOL    HW2 2422   2.902   0.203   2.907 -1.4444 -1.4660  0.9363
  788SOL     OW 2423   5.142   3.619   2.157  0.1296  0.3368  0.0559
  788SOL    HW1 2424   5.181   3.544   2.113  0.5185  0.7824 -0.3812
  788SOL    HW2 2425   5.202   3.691   2.139 -0.7462  0.9779 -0.3992
  789SOL     OW 2426   1.191   4.320   3.703  0.3105 -0.2426  0.3349
  789SOL    HW1 2427   1.172   4.301   3.611  0.7724 -0.1478  0.2204
  789SOL    HW2 2428   1.273   4.369   3.701  0.0572  0.2004  0.7609
  790SOL     OW 2429   3.769   2.869   0.232  0.5024 -0.5124 -0.2602
  790SOL    HW1 2430   3.846   2.829   0.272  0.0603  0.4430  1.6642
  790SOL    HW2 2431   3.745   2.940   0.292 -1.0871  0.0660 -1.5091
  791SOL     OW 2432   1.385   0.125   3.250 -0.1377 -0.1657 -0.5283
  791SOL    HW1 2433   1.445   0.050   3.254  2.3608  1.6587 -0.8356
  791SOL    HW2 2434   1.302   0.088   3.221  0.8733 -2.8549 -0.2827
  792SOL     OW 2435   0.736   1.222   4.250 -0.8046 -0.0872  0.4010
  792SOL    HW1 2436   0.789   1.269   4.186 -1.1309  1.5175  1.2570
  792SOL    HW2 2437   0.706   1.144   4.204  2.5961 -1.3184  0.0031
  793SOL     OW 2438   2.452   0.905   1.535 -0.1231 -0.6942  0.0195
  793SOL    HW1 2439   2.366   0.867   1.516  0.1215 -0.7853 -0.9338
  793SOL    HW2 2440   2.469   0.964   1.462 -0.0440  0.5023  0.9746
  794SOL     OW 2441   2.701   1.294   3.925  0.3337 -0.7320 -0.1783
  794SOL    HW1 2442   2.791   1.261   3.919  0.5930 -0.3803  1.3976
  794SOL    HW2 2443   2.709   1.376   3.975 -0.7873 -0.3348 -0.6091
  795SOL     OW 2444   1.818   3.438   3.071  0.3042 -0.3932 -0.0768
  795SOL    HW1 2445   1.842   3.348   3.093 -0.4739 -0.7923 -0.7892
  795SOL    HW2 2446   1.730   3.430   3.033  0.2168  0.6729 -0.1117
  796SOL     OW 2447   5.258   3.311   0.083  0.4881  0.2214 -0.7053
  796SOL    HW1 2448   5.292   3.259   0.010 -1.8534  0.3986 -2.0234
  796SOL    HW2 2449   5.263   3.401   0.052 -1.4954  0.2191 -1.1312
  797SOL     OW 2450   2.874   2.886   0.599 -0.1053 -0.1220  0.0037
  797SOL    HW1 2451   2.848   2.816   0.659  1.6202 -1.4671 -0.7144
  797SOL    HW2 2452   2.875   2.844   0.512  0.0558  1.0576 -0.5829
  798SOL     OW 2453   1.581   1.276   3.203 -0.3611 -0.0727 -0.1276
  798SOL    HW1 2454   1.630   1.256   3.123  0.6747  2.7315 -0.3035
  798SOL    HW2 2455   1.637   1.245   3.274  0.2588  0.4041 -0.4052
  799SOL     OW 2456   0.896   0.964   2.808 -0.6068  0.2903  0.8835
  799SOL    HW1 2457   0.981   0.987   2.845 -0.7011 -0.0965  1.3612
  799SOL    HW2 2458   0.883   1.025   2.736 -0.1661  0.7007  1.1489
  800SOL     OW 2459   1.331   0.126   4.271  0.4808  0.3709  0.0243
  800SOL    HW1 2460   1.329   0.210   4.317  0.8100  0.1075  0.5205
  800SOL    HW2 2461   1.348   0.061   4.339  0.0639 -0.1202 -0.3311
  801SOL     OW 2462   3.291   4.257   4.463 -0.3915 -0.4619 -0.2630
  801SOL    HW1 2463   3.293   4.162   4.456  0.3200 -0.4319 -0.5618
  801SOL    HW2 2464   3.374   4.279   4.507 -0.8435 -0.0239  0.3967
  802SOL     OW 2465   4.359   0.340   0.440 -0.3261  0.1618 -0.5285
  802SOL    HW1 2466   4.444   0.319   0.401 -0.6108 -0.1198 -1.0067
  802SOL    HW2 2467   4.371   0.323   0.534 -0.0775 -0.6117 -0.6915
  803SOL     OW 2468   4.810   3.437   0.277 -0.5230 -0.4211  0.0166
  803SOL    HW1 2469   4.736   3.491   0.306  0.8286  1.7778 -0.4169
  803SOL    HW2 2470   4.839   3.392   0.357 -1.1633  0.1467  0.5895
  804SOL     OW 2471   3.931   2.446   1.190 -0.3345  0.0291 -0.5113
  804SOL    HW1 2472   3.963   2.472   1.104  0.3444  1.0093  0.0167
  804SOL    HW2 2473   3.880   2.366   1.174 -0.4591  0.3586 -1.8449
  805SOL     OW 2474   3.578   2.799   0.685 -0.6708 -0.2819 -0.3202
  805SOL    HW1 2475   3.656   2.801   0.742 -1.6212 -4.4324  1.5206
  805SOL    HW2 2476   3.553   2.891   0.676  3.0880  1.0622  0.8661
  806SOL     OW 2477   4.284   4.453   2.274 -0.5599 -0.4093  0.9641
  806SOL    HW1 2478   4.293   4.390   2.345 -2.3729 -0.3182  1.3395
  806SOL    HW2 2479   4.255   4.534   2.316  1.2423  0.5740  0.4306
  807SOL     OW 2480   4.409   3.940   3.179 -0.0658  0.4603  0.1232
  807SOL    HW1 2481   4.330   3.953   3.128 -0.4283  0.3603  0.6519
  807SOL    HW2 2482   4.444   4.029   3.193  0.1857  0.4677 -0.5207
  808SOL     OW 2483   1.453   4.642   2.901 -0.1963 -0.0197 -0.0837
  808SOL    HW1 2484   1.406   4.597   2.971  0.2528 -1.6207 -0.7422
  808SOL    HW2 2485   1.545   4.627   2.921 -0.0556  0.0141 -0.6929
  809SOL     OW 2486   5.098   3.848   0.154  0.3165 -0.3567 -0.2242
  809SOL    HW1 2487   5.032   3.780   0.148 -1.1140  0.7886  1.5031
  809SOL    HW2 2488   5.061   3.922   0.104  0.6568  0.0274  0.0826
  810SOL     OW 2489   2.315   3.280   0.493  0.4883 -0.2727 -0.9419
  810SOL    HW1 2490   2.225   3.255   0.472  1.0387 -2.3796 -1.0508
  810SOL    HW2 2491   2.350   3.314   0.411 -1.0595  3.7369 -0.1864
  811SOL     OW 2492   3.510   3.693   3.932  0.0644 -0.1342 -0.3940
  811SOL    HW1 2493   3.580   3.680   3.995 -0.3902  2.4937  0.7802
  811SOL    HW2 2494   3.467   3.608   3.925  1.7235 -1.1123  0.8732
  812SOL     OW 2495   3.080   4.292   2.865 -0.0755 -0.2245 -0.2081
  812SOL    HW1 2496   3.090   4.387   2.868  1.6723 -0.3469 -1.1418
  812SOL    HW2 2497   3.168   4.257   2.881 -0.5492 -1.6760 -0.5730
  813SOL     OW 2498   2.736   3.302   3.341 -0.4889 -0.3668 -0.2425
  813SOL    HW1 2499   2.655   3.344   3.310 -0.7127 -0.0723  0.7130
  813SOL    HW2 2500   2.737   3.318   3.435 -0.0409 -1.6088 -0.0149
  814SOL     OW 2501   0.408   5.016   3.966  0.2204 -0.0108 -0.6026
  814SOL    HW1 2502   0.453   5.018   4.051  0.0275 -0.1430 -0.4984
  814SOL    HW2 2503   0.358   5.097   3.964  1.3911  0.7332 -1.2240
  815SOL     OW 2504   3.115   1.049   3.238 -0.5091 -0.6000 -0.3101
  815SOL    HW1 2505   3.188   0.993   3.210  0.0675  0.4086 -0.8788
  815SOL    HW2 2506   3.038   1.010   3.196  0.1595  0.1090 -2.3302
  816SOL     OW 2507   4.400   0.239   2.076 -0.0956  0.2103  0.5778
  816SOL    HW1 2508   4.334   0.258   2.010 -0.2090  0.5454  0.7887
  816SOL    HW2 2509   4.479   0.282   2.043  0.1997 -0.7405 -0.0067
  817SOL     OW 2510   2.517   0.930   3.856  0.0041  0.3014  0.4327
  817SOL    HW1 2511   2.481   0.975   3.780 -1.4486  0.6598  1.2834
  817SOL    HW2 2512   2.469   0.967   3.930  1.3425 -0.0778  1.5226
  818SOL     OW 2513   4.870   3.261   0.554 -0.3400 -0.1653  0.2277
  818SOL    HW1 2514   4.870   3.322   0.627 -0.9857  0.5003 -0.3181
  818SOL    HW2 2515   4.833   3.180   0.590  0.5128 -0.2451  0.9451
  819SOL     OW 2516   2.004   1.859   0.021 -0.5091 -0.1341 -0.5338
  819SOL    HW1 2517   1.987   1.900   0.106  0.6542 -1.2989  0.3072
  819SOL    HW2 2518   1.995   1.765   0.039  0.0226 -0.4058 -1.6469
  820SOL     OW 2519   5.452   1.423   3.627 -0.1381  0.3683 -0.1346
  820SOL    HW1 2520   5.437   1.408   3.721  0.7127 -0.4198 -0.1133
  820SOL    HW2 2521   5.431   1.516   3.614 -3.5035 -0.2241  0.1576
  821SOL     OW 2522   3.287   3.932   1.497 -0.5117  0.0141 -0.2613
  821SOL    HW1 2523   3.258   3.841   1.495  2.7016 -1.1615  1.0763
  821SOL    HW2 2524   3.313   3.950   1.406 -0.8962 -0.4962 -0.4785
  822SOL     OW 2525   0.111   2.021   1.205  0.0474  0.3776  0.2510
  822SOL    HW1 2526   0.205   2.004   1.200 -0.1891 -1.6824  1.3534
  822SOL    HW2 2527   0.095   2.038   1.297 -0.7455  0.0489  0.1798
  823SOL     OW 2528   1.533   3.598   4.040  0.4309  0.6576  0.1958
  823SOL    HW1 2529   1.629   3.595   4.044  0.5185 -0.3930 -1.5936
  823SOL    HW2 2530   1.504   3.537   4.108  1.0929 -0.4838 -0.5225
  824SOL     OW 2531   4.989   0.954   4.155  0.1742  0.2492 -0.2694
  824SOL    HW1 2532   5.035   0.932   4.236  0.5683  1.7983 -0.0582
  824SOL    HW2 2533   5.045   1.017   4.111 -0.2548 -0.2336 -1.5511
  825SOL     OW 2534   4.269   2.971   3.216  0.0099 -0.1631  0.2855
  825SOL    HW1 2535   4.319   3.048   3.242 -1.1649  0.0613  2.1214
  825SOL    HW2 2536   4.220   2.999   3.139 -0.5739  1.0459  1.0546
  826SOL     OW 2537   2.755   1.947   1.447 -0.6806  0.2885  0.1990
  826SOL    HW1 2538   2.771   1.994   1.365 -1.3058  1.0244  0.4959
  826SOL    HW2 2539   2.688   1.882   1.424 -1.9100  1.4300  0.4344
  827SOL     OW 2540   0.613   4.235   0.151 -0.0694 -0.5162 -0.2754
  827SOL    HW1 2541   0.628   4.305   0.214 -1.5281 -1.3012  1.0278
  827SOL    HW2 2542   0.523   4.250   0.120  0.7700  0.1392 -2.6013
  828SOL     OW 2543   2.705   4.377   2.874 -0.3653  0.0068 -0.9849
  828SOL    HW1 2544   2.652   4.337   2.804 -0.9373 -1.3441  0.1761
  828SOL    HW2 2545   2.690   4.322   2.950  2.7050 -0.4400 -0.5584
  829SOL     OW 2546   3.538   2.784   2.817  0.0048  0.4565 -0.2173
  829SOL    HW1 2547   3.605   2.822   2.761 -0.9162  0.5752 -1.2765
  829SOL    HW2 2548   3.463   2.843   2.809 -1.8840 -1.9996 -2.8135
  830SOL     OW 2549   4.812   4.862   3.901  0.7035 -0.2131 -0.0336
  830SOL    HW1 2550   4.826   4.927   3.832  0.7583 -1.0596 -0.8335
  830SOL    HW2 2551   4.898   4.823   3.915  0.7813  0.2323  0.8177
  831SOL     OW 2552   1.677   1.980   0.539  0.2465  0.5348  0.0004
  831SOL    HW1 2553   1.625   1.913   0.493  0.3756  0.0519  0.5394
  831SOL    HW2 2554   1.742   1.930   0.588 -0.0599  1.0152  0.9210
  832SOL     OW 2555   0.448   5.058   4.249  0.0246  0.0075 -0.2524
  832SOL    HW1 2556   0.395   5.122   4.295 -1.1669  0.3263 -1.9752
  832SOL    HW2 2557   0.434   4.976   4.296 -1.6475  0.1876 -0.3971
  833SOL     OW 2558   3.591   0.045   2.574 -0.6464 -0.3409  0.1423
  833SOL    HW1 2559   3.642   0.048   2.655  0.5101  1.4081 -0.5973
  833SOL    HW2 2560   3.547  -0.040   2.577 -1.6286  0.1526  3.1668
  834SOL     OW 2561   0.393   2.229   2.272  0.5493  0.0906 -0.2820
  834SOL    HW1 2562   0.354   2.142   2.278  0.5493 -0.0239 -1.5585
  834SOL    HW2 2563   0.318   2.288   2.264  0.5680  0.1194 -0.2423
  835SOL     OW 2564   2.962   1.491   2.291  0.0722 -0.1886 -0.3560
  835SOL    HW1 2565   2.889   1.459   2.345  0.0667 -0.4659 -0.5292
  835SOL    HW2 2566   3.013   1.546   2.351  1.1114 -1.9516  0.4736
  836SOL     OW 2567   3.605   2.250   0.405  0.0940  0.2231 -0.0007
  836SOL    HW1 2568   3.688   2.202   0.400  0.3760  0.6641  0.3444
  836SOL    HW2 2569   3.539   2.186   0.379  0.2953 -0.7994  1.8002
  837SOL     OW 2570   2.723   2.308   2.749  0.1747 -0.2666 -0.1670
  837SOL    HW1 2571   2.807   2.304   2.794  0.4575 -0.6693 -0.7126
  837SOL    HW2 2572   2.663   2.348   2.812 -0.3545 -3.9836  1.9726
  838SOL     OW 2573   0.345   2.603   0.096 -0.9184  0.4999  0.0145
  838SOL    HW1 2574   0.366   2.683   0.049 -0.6194  1.2254  1.3274
  838SOL    HW2 2575   0.430   2.561   0.111 -1.1273 -0.4321 -1.2485
  839SOL     OW 2576   2.279   0.999   2.765  0.2904 -0.1048  0.4379
  839SOL    HW1 2577   2.262   1.025   2.674  0.2419  2.0034  1.0101
  839SOL    HW2 2578   2.197   1.020   2.811  1.5698  2.6339  1.6867
  840SOL     OW 2579   3.751   1.105   3.879  0.3140  0.2514 -0.1477
  840SOL    HW1 2580   3.767   1.050   3.802 -0.1734 -1.6782  1.0614
  840SOL    HW2 2581   3.757   1.044   3.953 -1.0401  1.6886  1.2042
  841SOL     OW 2582   2.916   2.709   0.377 -0.5749  0.0087  0.3762
  841SOL    HW1 2583   2.991   2.718   0.437 -0.8664  0.4000  0.6897
  841SOL    HW2 2584   2.891   2.617   0.383  1.4602 -0.7656 -1.6504
  842SOL     OW 2585   3.166   2.107   4.129  1.0353 -0.8491 -0.3270
  842SOL    HW1 2586   3.122   2.063   4.202 -0.4114 -0.5457 -0.9729
  842SOL    HW2 2587   3.257   2.116   4.157  0.9620 -2.5589  0.5906
  843SOL     OW 2588   3.679   2.091   1.768  0.6529  0.5325 -0.2062
  843SOL    HW1 2589   3.711   2.002   1.783  0.4806  0.2226 -1.6146
  843SOL    HW2 2590   3.601   2.098   1.824  0.4052 -0.3498 -0.4332
  844SOL     OW 2591   1.495   2.330   0.227  0.4494  0.9944 -0.6833
  844SOL    HW1 2592   1.560   2.397   0.249 -0.2268  1.5214 -0.2490
  844SOL    HW2 2593   1.506   2.263   0.294  0.2094  1.3264 -0.3068
  845SOL     OW 2594   2.804   2.854   1.756  0.2739 -0.1718  0.5299
  845SOL    HW1 2595   2.774   2.800   1.683  0.2857  0.0782  0.3425
  845SOL    HW2 2596   2.889   2.817   1.779  1.0185  0.7642 -0.6341
  846SOL     OW 2597   3.474   2.833   3.130  0.3300 -0.0795 -0.2801
  846SOL    HW1 2598   3.393   2.858   3.085  0.5900 -1.2470 -1.4467
  846SOL    HW2 2599   3.445   2.801   3.216 -0.2969  0.8487 -0.1276
  847SOL     OW 2600   0.208   0.509   1.036 -0.0069  0.2388  0.5182
  847SOL    HW1 2601   0.168   0.593   1.016  0.7371  0.4770 -0.0318
  847SOL    HW2 2602   0.301   0.521   1.016  0.3276 -0.3353  1.6114
  848SOL     OW 2603   2.672   4.503   2.590 -0.0872 -0.5770 -0.2464
  848SOL    HW1 2604   2.576   4.507   2.586 -0.1910 -1.8641  0.4723
  848SOL    HW2 2605   2.692   4.507   2.683  0.4565 -1.8682 -0.2851
  849SOL     OW 2606   5.007   0.869   4.417 -0.1536  0.5326 -0.1382
  849SOL    HW1 2607   5.011   0.875   4.512  1.2445 -0.6390 -0.0980
  849SOL    HW2 2608   5.021   0.777   4.397  1.7304  1.0494 -1.5473
  850SOL     OW 2609   0.837   4.606   1.069 -0.0820 -0.1017  0.2015
  850SOL    HW1 2610   0.804   4.518   1.050 -0.0202 -0.4875  1.7957
  850SOL    HW2 2611   0.818   4.620   1.161  2.8470  0.2203  0.8490
  851SOL     OW 2612   2.664   3.884   1.580 -0.1822 -0.0143 -0.1113
  851SOL    HW1 2613   2.632   3.925   1.660 -0.8634  2.0379 -1.3637
  851SOL    HW2 2614   2.590   3.829   1.551 -1.0941  1.5143 -0.8200
  852SOL     OW 2615   4.079   3.766   3.370  0.5638  0.6668 -0.5072
  852SOL    HW1 2616   4.163   3.785   3.327  0.8218  0.6006 -0.0397
  852SOL    HW2 2617   4.068   3.837   3.434  0.6473  0.2479 -0.0226
  853SOL     OW 2618   5.458   4.094   3.756 -0.9285  0.5734  0.5731
  853SOL    HW1 2619   5.474   4.103   3.662  0.4695  0.4824  0.7883
  853SOL    HW2 2620   5.480   4.002   3.775 -0.0560  0.9026  1.1927
  854SOL     OW 2621   3.114   3.298   2.339  0.2855 -0.1423 -0.1440
  854SOL    HW1 2622   3.073   3.282   2.424 -0.2208  2.5513  0.2038
  854SOL    HW2 2623   3.041   3.316   2.280  0.7568  2.5325 -0.0272
  855SOL     OW 2624   4.437   2.910   3.604  0.1619  0.3003  0.0122
  855SOL    HW1 2625   4.488   2.924   3.524 -0.3071  0.0674 -0.3290
  855SOL    HW2 2626   4.403   2.996   3.626 -2.2585 -0.1054 -1.7755
  856SOL     OW 2627   5.197   0.249   4.221 -0.1060 -0.1946 -0.0379
  856SOL    HW1 2628   5.178   0.195   4.297  0.3387  0.7296  0.7517
  856SOL    HW2 2629   5.118   0.244   4.167 -0.0182 -1.7325 -0.0665
  857SOL     OW 2630   0.433   3.368   1.511  0.0678 -0.2997 -0.5315
  857SOL    HW1 2631   0.399   3.285   1.478 -0.6774  0.0506 -0.6537
  857SOL    HW2 2632   0.512   3.384   1.458 -0.1114 -0.6414 -0.9004
  858SOL     OW 2633   2.223   1.312   1.009  0.0851 -0.0075 -0.2381
  858SOL    HW1 2634   2.137   1.347   0.986 -0.2201 -0.4461  0.1885
  858SOL    HW2 2635   2.247   1.357   1.090 -0.8770 -1.6016  1.0145
  859SOL     OW 2636   5.100   0.433   3.928 -0.7195 -0.2729 -0.0317
  859SOL    HW1 2637   5.037   0.503   3.946 -1.8373 -1.1285 -0.4937
  859SOL    HW2 2638   5.050   0.353   3.939 -0.1022 -0.9468 -1.8752
  860SOL     OW 2639   3.756   4.564   1.744 -0.4979 -0.2518 -0.2862
  860SOL    HW1 2640   3.733   4.483   1.790  1.0440 -0.2440  0.5661
  860SOL    HW2 2641   3.787   4.535   1.658 -2.6576 -0.3195 -1.1146
  861SOL     OW 2642   2.588   1.327   4.245 -0.5102 -0.0183 -0.1088
  861SOL    HW1 2643   2.541   1.341   4.327 -2.2318  1.4506 -1.2550
  861SOL    HW2 2644   2.531   1.366   4.178  1.7541  0.6767 -1.7546
  862SOL     OW 2645   1.765   0.875   2.503  0.2506  0.0885 -0.2806
  862SOL    HW1 2646   1.742   0.966   2.521 -1.5074 -0.7358  2.2481
  862SOL    HW2 2647   1.702   0.847   2.436  0.0671  0.4398 -0.2579
  863SOL     OW 2648   0.597   3.545   4.242 -0.6866  0.2221 -0.1755
  863SOL    HW1 2649   0.627   3.458   4.217 -0.2951  0.0332  0.8658
  863SOL    HW2 2650   0.503   3.534   4.257 -0.3897 -0.4326  1.4690
  864SOL     OW 2651   4.184   2.306   4.279 -0.0139  0.1242 -0.4189
  864SOL    HW1 2652   4.121   2.377   4.279 -0.7119 -0.4790 -0.7071
  864SOL    HW2 2653   4.267   2.346   4.305 -0.3445  1.0827 -0.8273
  865SOL     OW 2654   0.005   1.830   3.339 -0.3634 -0.4359 -0.4338
  865SOL    HW1 2655   0.076   1.770   3.313 -0.0761  0.7625 -2.6806
  865SOL    HW2 2656   0.048   1.913   3.356 -0.9056 -0.4967  1.4154
  866SOL     OW 2657   1.210   1.407   2.022 -0.7869 -0.6704  0.2774
  866SOL    HW1 2658   1.227   1.371   2.109 -2.1308 -1.4472  0.2459
  866SOL    HW2 2659   1.287   1.461   2.003 -0.1764 -1.0045  1.6652
  867SOL     OW 2660   4.951   1.663   0.755  0.0647  0.4770 -0.2574
  867SOL    HW1 2661   4.987   1.748   0.731 -2.4318  1.4294 -0.9218
  867SOL    HW2 2662   4.903   1.634   0.678 -1.4338 -0.1822  0.8629
  868SOL     OW 2663   4.669   0.503   2.600  0.7925  0.5853  0.0140
  868SOL    HW1 2664   4.708   0.416   2.606  0.5567  0.4434 -0.4664
  868SOL    HW2 2665   4.717   0.547   2.530 -1.1682 -0.2853 -1.9964
  869SOL     OW 2666   2.204   2.295   0.206  0.2433  0.4387 -0.3413
  869SOL    HW1 2667   2.195   2.276   0.300  0.5055 -0.0473 -0.4112
  869SOL    HW2 2668   2.298   2.314   0.195  0.4729 -0.8617 -0.7414
  870SOL     OW 2669   1.920   2.772   2.529 -0.5758 -0.0206 -0.1068
  870SOL    HW1 2670   1.931   2.866   2.518 -1.3905  0.0789 -0.1185
  870SOL    HW2 2671   1.988   2.747   2.591  0.5185  0.3437 -1.1062
  871SOL     OW 2672   2.593   1.741   3.082 -0.0080 -0.2444  0.0694
  871SOL    HW1 2673   2.642   1.821   3.068  1.6210 -1.1802  0.1573
  871SOL    HW2 2674   2.507   1.758   3.044  0.2673  1.5661  0.2000
  872SOL     OW 2675   3.154   3.630   2.110  0.1707  0.2258  0.0764
  872SOL    HW1 2676   3.227   3.648   2.169  0.1925 -0.4919  0.2672
  872SOL    HW2 2677   3.114   3.716   2.095  0.0089  0.3764  1.3281
  873SOL     OW 2678   0.619   0.778   3.444  0.0417 -0.3339 -0.4490
  873SOL    HW1 2679   0.666   0.854   3.479 -0.4042  0.1485 -0.8571
  873SOL    HW2 2680   0.636   0.708   3.506 -0.2963  0.3547  0.4473
  874SOL     OW 2681   0.545   3.124   1.008  0.0386  0.2657  0.4944
  874SOL    HW1 2682   0.592   3.079   0.938  1.3608  1.6240  0.4567
  874SOL    HW2 2683   0.541   3.060   1.079  1.5220 -0.0781  0.3025
  875SOL     OW 2684   1.315   2.462   3.232 -0.1758  0.0075 -0.0913
  875SOL    HW1 2685   1.329   2.429   3.143  1.7630 -0.0570  0.2011
  875SOL    HW2 2686   1.321   2.557   3.225 -1.2008  0.0806 -0.1898
  876SOL     OW 2687   1.758   0.910   1.692  0.4655  0.7107  0.1871
  876SOL    HW1 2688   1.838   0.904   1.744  0.1397  0.2815  0.6427
  876SOL    HW2 2689   1.708   0.981   1.732  0.3499  0.5813  0.2721
  877SOL     OW 2690   1.732   4.485   3.380 -0.2499  0.0540  0.2402
  877SOL    HW1 2691   1.793   4.559   3.386  0.2522 -0.4084  1.0031
  877SOL    HW2 2692   1.773   4.416   3.432 -0.4935 -0.9160 -0.8081
  878SOL     OW 2693   3.604   2.931   1.818  0.4000 -0.2726 -0.6038
  878SOL    HW1 2694   3.675   2.953   1.758 -1.0851  0.0625 -2.3317
  878SOL    HW2 2695   3.564   3.016   1.839  1.3659 -0.3003  1.5350
  879SOL     OW 2696   4.694   3.138   0.731 -0.7991  0.0489  0.1317
  879SOL    HW1 2697   4.682   3.045   0.715  1.1121  0.1946 -2.8946
  879SOL    HW2 2698   4.605   3.175   0.728 -1.4558 -1.4720  0.1193
  880SOL     OW 2699   0.664   1.997   3.588 -0.0607  0.0778 -0.5772
  880SOL    HW1 2700   0.696   1.911   3.559 -0.3365  0.3800 -1.8638
  880SOL    HW2 2701   0.736   2.057   3.568  0.4580  0.0537  1.0796
  881SOL     OW 2702   3.874   5.126   1.815  0.3497  0.0180  0.1092
  881SOL    HW1 2703   3.880   5.220   1.832  0.4429  0.2616 -1.1742
  881SOL    HW2 2704   3.965   5.096   1.820  0.7034  0.5168 -2.0873
  882SOL     OW 2705   1.330   0.329   3.653 -0.5118 -0.3583 -0.0271
  882SOL    HW1 2706   1.264   0.348   3.585  0.3700 -0.6709 -0.9974
  882SOL    HW2 2707   1.394   0.399   3.645  0.0921 -0.9129 -0.1785
  883SOL     OW 2708   1.632   2.216   3.208  0.1702 -0.0829 -0.1695
  883SOL    HW1 2709   1.721   2.246   3.227  0.2081  0.4421 -1.1176
  883SOL    HW2 2710   1.604   2.271   3.135  0.2921 -2.4779 -2.1318
  884SOL     OW 2711   1.558   4.816   2.267  0.4286  0.1983  0.0266
  884SOL    HW1 2712   1.635   4.765   2.241  0.6257  0.0903  0.8097
  884SOL    HW2 2713   1.484   4.756   2.254  0.5950 -0.0798  0.3470
  885SOL     OW 2714   5.079   4.694   3.012 -0.2801 -0.3908 -0.0833
  885SOL    HW1 2715   5.133   4.621   2.981  0.7547 -0.0392  0.8163
  885SOL    HW2 2716   5.048   4.736   2.932 -0.2755 -1.3672 -0.6123
  886SOL     OW 2717   0.166   2.307   1.169 -0.1073  0.4412  0.1192
  886SOL    HW1 2718   0.238   2.246   1.153 -0.2144 -0.1287  1.5919
  886SOL    HW2 2719   0.090   2.266   1.128  0.3198  0.8755 -1.1416
  887SOL     OW 2720   2.578   2.585   3.867  0.1799  0.1418 -0.4567
  887SOL    HW1 2721   2.657   2.533   3.882 -0.0515 -0.6990 -1.9939
  887SOL    HW2 2722   2.510   2.521   3.849 -0.6007  0.9064 -0.2945
  888SOL     OW 2723   0.814   1.158   0.225  0.4378  0.3600 -0.0406
  888SOL    HW1 2724   0.722   1.186   0.232  0.4641  0.6831 -0.9190
  888SOL    HW2 2725   0.826   1.138   0.132  1.3721  0.7005  0.0005
  889SOL     OW 2726   2.573   4.319   1.549 -0.3507  0.4348  0.7103
  889SOL    HW1 2727   2.601   4.231   1.577  1.1732  0.1985 -1.3278
  889SOL    HW2 2728   2.614   4.378   1.612  0.6771 -0.2027  0.6649
  890SOL     OW 2729   2.868   1.574   0.305  0.2436 -0.0494 -0.3770
  890SOL    HW1 2730   2.793   1.631   0.316  1.6759  1.6939  1.2309
  890SOL    HW2 2731   2.864   1.515   0.381  0.3296 -0.1414 -0.4437
  891SOL     OW 2732   1.224   4.236   2.416  0.5152 -0.3276 -0.3007
  891SOL    HW1 2733   1.217   4.331   2.409 -1.4342 -0.4057 -0.0740
  891SOL    HW2 2734   1.164   4.213   2.487 -0.2805 -1.8468 -1.4080
  892SOL     OW 2735   2.353   4.148   3.030  0.1198  0.3862 -0.0395
  892SOL    HW1 2736   2.356   4.088   2.955  0.8975  1.6809 -1.0702
  892SOL    HW2 2737   2.444   4.173   3.046 -0.3319  3.0076 -1.0757
  893SOL     OW 2738   3.495   2.595   2.504 -0.2045 -0.0505 -0.1008
  893SOL    HW1 2739   3.409   2.608   2.543 -0.1197  1.9918 -0.4686
  893SOL    HW2 2740   3.513   2.502   2.516 -1.0375  0.0688  2.8999
  894SOL     OW 2741   3.677   5.000   2.780  0.6577 -0.1596  0.0490
  894SOL    HW1 2742   3.691   4.935   2.712  1.7051 -0.9529  0.9939
  894SOL    HW2 2743   3.713   4.961   2.859 -0.2046  0.8852  1.0007
  895SOL     OW 2744   4.198   4.476   2.945 -0.0750  0.1535  0.6974
  895SOL    HW1 2745   4.121   4.421   2.934 -0.7264  1.1546  0.1496
  895SOL    HW2 2746   4.213   4.515   2.859  0.2656  0.9561  1.1086
  896SOL     OW 2747   2.053   5.088   0.180 -0.8648 -0.0168  0.0500
  896SOL    HW1 2748   1.958   5.087   0.169 -0.8057 -1.2864 -0.4945
  896SOL    HW2 2749   2.081   5.001   0.153  0.5228  0.5205 -0.3059
  897SOL     OW 2750   3.256   0.539   0.747 -0.0970  0.1506  0.4185
  897SOL    HW1 2751   3.274   0.621   0.792  0.4038  0.8345 -0.9493
  897SOL    HW2 2752   3.287   0.471   0.806 -1.5449  0.8511  2.0794
  898SOL     OW 2753   0.120   0.839   2.663  0.7318 -0.4503 -0.0311
  898SOL    HW1 2754   0.073   0.826   2.745  0.7186 -0.7767 -0.0899
  898SOL    HW2 2755   0.168   0.921   2.676 -1.4576  1.0376 -0.7318
  899SOL     OW 2756   4.520   1.629   1.254 -0.0556  0.5450  0.0834
  899SOL    HW1 2757   4.600   1.617   1.203 -0.1010  1.6882 -0.2844
  899SOL    HW2 2758   4.550   1.664   1.338 -0.1756  1.1233 -0.1115
  900SOL     OW 2759   1.316   3.815   2.561 -0.0557  0.0778  0.0975
  900SOL    HW1 2760   1.349   3.904   2.556  1.2653 -0.4264 -0.9138
  900SOL    HW2 2761   1.261   3.805   2.483 -2.1684  0.7064  1.4362
  901SOL     OW 2762   4.206   1.924   3.331 -0.1310  0.6729 -0.4244
  901SOL    HW1 2763   4.295   1.898   3.307  0.2398  0.7467  0.8048
  901SOL    HW2 2764   4.187   1.873   3.410 -0.1310  2.6413  0.9212
  902SOL     OW 2765   0.839   2.188   2.509 -0.1897  0.2889  0.0451
  902SOL    HW1 2766   0.785   2.146   2.442  0.9133 -1.4190  0.1631
  902SOL    HW2 2767   0.820   2.282   2.500 -0.8569  0.0170 -1.9500
  903SOL     OW 2768   1.408   1.760   0.060  0.6102  0.3833  0.2598
  903SOL    HW1 2769   1.456   1.840   0.037 -0.7701  2.0987  2.8306
  903SOL    HW2 2770   1.343   1.751  -0.010  0.3752  1.9324  0.2289
  904SOL     OW 2771   1.525   3.443   2.816  0.5437  0.2409  0.5497
  904SOL    HW1 2772   1.497   3.533   2.799 -0.1129 -0.3251 -1.7935
  904SOL    HW2 2773   1.511   3.431   2.909  0.7796  2.5977  0.9659
  905SOL     OW 2774   4.695   3.012   2.168  0.2940 -0.1126  0.0136
  905SOL    HW1 2775   4.753   3.042   2.098 -1.7741 -0.9137 -2.1610
  905SOL    HW2 2776   4.733   2.928   2.195  1.0739  0.1625 -0.2013
  906SOL     OW 2777   5.008   1.524   2.203  0.2729 -0.3262 -0.4202
  906SOL    HW1 2778   4.991   1.537   2.297  2.2292 -0.5607  0.0260
  906SOL    HW2 2779   4.931   1.559   2.159 -1.3576 -1.5178  1.3183
  907SOL     OW 2780   1.356   0.670   3.153  0.0849 -0.4835 -0.1429
  907SOL    HW1 2781   1.352   0.581   3.120  1.6701  0.1746 -2.3354
  907SOL    HW2 2782   1.297   0.670   3.229 -2.3934 -2.5939 -1.8826
  908SOL     OW 2783   1.164   4.546   2.465 -0.4010  0.1045 -0.0039
  908SOL    HW1 2784   1.100   4.612   2.436 -0.4712  0.0449  0.0143
  908SOL    HW2 2785   1.199   4.581   2.547 -1.4430 -0.5255  0.7343
  909SOL     OW 2786   3.248   4.955   4.058  0.2135  0.3555 -0.4612
  909SOL    HW1 2787   3.237   5.050   4.054  0.8376  0.5032  0.8492
  909SOL    HW2 2788   3.258   4.929   3.966 -0.3196  1.5034 -0.8649
  910SOL     OW 2789   4.618   2.297   1.176 -0.2343 -0.3122 -0.0118
  910SOL    HW1 2790   4.556   2.236   1.136 -1.0478  0.0160  0.7309
  910SOL    HW2 2791   4.617   2.275   1.269 -0.5188  0.8206  0.2589
  911SOL     OW 2792   4.081   4.062   3.354 -0.4032  0.4737  0.1841
  911SOL    HW1 2793   4.059   4.079   3.262 -0.0377 -0.3554 -0.0770
  911SOL    HW2 2794   4.006   4.093   3.403  0.1900  2.7032 -0.2230
  912SOL     OW 2795   0.871   4.669   1.874 -0.2947  0.1527 -0.2822
  912SOL    HW1 2796   0.778   4.690   1.875 -0.9139 -2.0729 -2.2194
  912SOL    HW2 2797   0.878   4.586   1.922  0.4353 -0.4233 -1.3301
  913SOL     OW 2798   4.989   2.730   3.318 -0.4143  0.4546  0.3434
  913SOL    HW1 2799   4.937   2.793   3.369  0.7998  1.6552  0.1720
  913SOL    HW2 2800   5.074   2.773   3.308  1.4557 -2.3547  2.5876
  914SOL     OW 2801   2.622   4.243   1.839 -0.1689  0.1834  0.2542
  914SOL    HW1 2802   2.650   4.335   1.840 -1.3282  0.5524  1.0706
  914SOL    HW2 2803   2.703   4.193   1.833  0.4633  1.2687 -0.5457
  915SOL     OW 2804   3.708   4.961   0.403 -0.2115  0.3190  0.2898
  915SOL    HW1 2805   3.652   4.911   0.344 -1.3933 -0.9874  2.4026
  915SOL    HW2 2806   3.742   5.032   0.349  0.9697 -2.2832 -2.6705
  916SOL     OW 2807   0.233   5.066   2.075  0.4466 -0.1397  0.0609
  916SOL    HW1 2808   0.220   4.972   2.082  1.0752 -0.2092  0.4148
  916SOL    HW2 2809   0.153   5.105   2.110 -0.4272 -0.5333 -1.3995
  917SOL     OW 2810   1.443   2.951   2.256  0.1245 -0.7748 -0.7526
  917SOL    HW1 2811   1.483   2.973   2.172  2.7619  0.3394  0.6682
  917SOL    HW2 2812   1.517   2.945   2.316 -1.8182  1.2081  2.0706
  918SOL     OW 2813   1.581   4.341   4.225 -0.1873  0.2572  0.0274
  918SOL    HW1 2814   1.549   4.321   4.137  0.7361  1.3707 -0.5917
  918SOL    HW2 2815   1.671   4.371   4.212  0.7333 -1.5658  1.5740
  919SOL     OW 2816   1.774   3.808   3.410  0.2945 -0.1262  0.3227
  919SOL    HW1 2817   1.809   3.720   3.398 -0.4075 -0.2185 -1.4698
  919SOL    HW2 2818   1.810   3.858   3.337 -1.2845  0.3990 -0.1458
  920SOL     OW 2819   0.677   3.106   2.626 -0.5750 -0.2675  0.0277
  920SOL    HW1 2820   0.685   3.188   2.578 -1.2318 -0.1981  0.0228
  920SOL    HW2 2821   0.718   3.040   2.570 -0.4982 -0.0274 -0.1981
  921SOL     OW 2822   4.449   1.031   0.048 -0.3988 -0.0829  0.7824
  921SOL    HW1 2823   4.440   1.110   0.101 -2.6093 -0.8756  1.7024
  921SOL    HW2 2824   4.361   0.994   0.044  0.2695 -1.6567 -0.9774
  922SOL     OW 2825   5.065   4.339   2.561  0.6613 -0.1807  0.2000
  922SOL    HW1 2826   5.062   4.253   2.603 -0.4469 -0.9002 -1.2848
  922SOL    HW2 2827   5.084   4.321   2.470 -0.5085  1.0595 -0.3299
  923SOL     OW 2828   1.548   1.343   4.225  0.5953 -0.2820  0.3636
  923SOL    HW1 2829   1.542   1.249   4.204  1.8450  0.2007 -2.8153
  923SOL    HW2 2830   1.457   1.371   4.232  0.0982 -1.3248 -1.1517
  924SOL     OW 2831   0.565   2.023   2.599 -0.4625  0.3224  0.2570
  924SOL    HW1 2832   0.524   2.106   2.574 -1.2633  0.0316  0.5558
  924SOL    HW2 2833   0.540   1.963   2.529 -0.8013  0.0681  0.5924
  925SOL     OW 2834   2.192   3.066   1.466  0.1442  0.0610 -0.1926
  925SOL    HW1 2835   2.166   3.077   1.374 -1.7010  0.3751  0.3143
  925SOL    HW2 2836   2.132   3.123   1.514  0.6654 -0.5816  1.2692
  926SOL     OW 2837   1.849   3.673   2.136  0.1263  0.1554  0.4940
  926SOL    HW1 2838   1.911   3.606   2.165  1.9496  1.7708  0.6003
  926SOL    HW2 2839   1.787   3.681   2.209  1.2517  0.1667  1.4882
  927SOL     OW 2840   4.289   2.108   1.378  0.4774 -0.1877 -0.0318
  927SOL    HW1 2841   4.384   2.102   1.368  0.3118 -3.8049 -0.7564
  927SOL    HW2 2842   4.254   2.094   1.290 -0.6610 -3.5344  0.7896
  928SOL     OW 2843   3.050   0.967   4.378  0.0325  0.0555  1.2851
  928SOL    HW1 2844   3.062   0.873   4.367  0.2499  0.1932  0.2792
  928SOL    HW2 2845   3.136   1.005   4.357  1.2534  0.2634  5.5585
  929SOL     OW 2846   2.315   4.115   1.302 -0.1516 -0.8224  0.8132
  929SOL    HW1 2847   2.327   4.190   1.361  2.3817 -0.6818  0.2317
  929SOL    HW2 2848   2.396   4.112   1.251 -0.6464 -3.3092  0.0605
  930SOL     OW 2849   0.223   1.474   4.227  0.0665 -0.0755  0.0137
  930SOL    HW1 2850   0.153   1.418   4.193 -0.6422  0.1709  1.0383
  930SOL    HW2 2851   0.190   1.563   4.218  0.1814  0.0372  0.6416
  931SOL     OW 2852   3.814   3.205   2.028  0.1211 -0.4150 -0.5540
  931SOL    HW1 2853   3.757   3.227   2.101  1.9368  0.5681  0.6340
  931SOL    HW2 2854   3.859   3.287   2.007  2.2565 -1.4790 -0.3728
  932SOL     OW 2855   4.891   4.658   4.226  0.1992 -0.0243 -0.2965
  932SOL    HW1 2856   4.816   4.617   4.270 -0.6029  0.4940 -1.1306
  932SOL    HW2 2857   4.865   4.750   4.216  0.6367  0.0006 -1.2612
  933SOL     OW 2858   1.237   2.896   1.118  0.7781 -0.0539 -0.1465
  933SOL    HW1 2859   1.277   2.974   1.157  0.5555 -0.3873  0.7701
  933SOL    HW2 2860   1.171   2.931   1.057  2.4432  0.5030 -1.7215
  934SOL     OW 2861   1.272   3.887   4.387  0.0296 -0.3057  0.2159
  934SOL    HW1 2862   1.353   3.936   4.377  0.5484 -1.2392 -0.2370
  934SOL    HW2 2863   1.203   3.951   4.371  0.6893 -0.2985 -3.4374
  935SOL     OW 2864   0.462   0.485   0.922 -0.1673  0.6021 -0.4785
  935SOL    HW1 2865   0.527   0.514   0.858 -2.6456  3.1074 -2.0859
  935SOL    HW2 2866   0.436   0.398   0.892  0.8770  0.4809 -1.0644
  936SOL     OW 2867   2.424   1.259   0.529  0.0343  0.4071 -0.5025
  936SOL    HW1 2868   2.330   1.272   0.538 -0.0668 -1.1212  1.2666
  936SOL    HW2 2869   2.436   1.232   0.437 -1.5152 -1.0532 -0.3346
  937SOL     OW 2870   2.030   4.372   3.907  0.0424  0.0753  0.1340
  937SOL    HW1 2871   2.118   4.381   3.871  0.2396 -0.6514  0.4234
  937SOL    HW2 2872   2.004   4.462   3.929  0.1922  0.4560 -1.1397
  938SOL     OW 2873   5.040   2.433   0.017 -0.5470  0.0498  0.5078
  938SOL    HW1 2874   5.135   2.435   0.027 -0.3154  1.8346 -1.2907
  938SOL    HW2 2875   5.017   2.340   0.019  1.6130 -0.6375 -1.7359
  939SOL     OW 2876   2.549   1.129   1.365 -0.4661 -0.8534  0.6518
  939SOL    HW1 2877   2.532   1.209   1.414  2.1324  0.5437 -0.5142
  939SOL    HW2 2878   2.637   1.102   1.392 -0.8201 -2.6524  0.1425
  940SOL     OW 2879   4.073   2.378   2.378 -0.1616 -0.1280 -0.0262
  940SOL    HW1 2880   3.989   2.424   2.382 -0.2806  0.2946 -3.9055
  940SOL    HW2 2881   4.061   2.311   2.311  1.8032 -1.9817  1.3508
  941SOL     OW 2882   0.582   1.343   1.069 -0.0381  0.1200  0.2333
  941SOL    HW1 2883   0.674   1.344   1.094 -0.3226 -0.2265  1.3553
  941SOL    HW2 2884   0.545   1.421   1.110 -0.1022  0.6404 -0.8007
  942SOL     OW 2885   0.553   2.132   4.336  0.2675  0.1093  0.0397
  942SOL    HW1 2886   0.640   2.098   4.356  0.3165  0.7161  0.9307
  942SOL    HW2 2887   0.555   2.222   4.366 -0.7368  0.0694  0.2753
  943SOL     OW 2888   0.274   4.453   3.830  0.2541 -0.0962 -0.4921
  943SOL    HW1 2889   0.365   4.455   3.859  0.5218 -3.6344 -0.5862
  943SOL    HW2 2890   0.278   4.468   3.736  0.4508  1.7441 -0.2294
  944SOL     OW 2891   3.858   4.729   0.328 -0.1202  0.1748 -0.2899
  944SOL    HW1 2892   3.822   4.798   0.384  0.0145  1.0890 -1.2797
  944SOL    HW2 2893   3.789   4.663   0.323 -0.4726  0.4981  0.2460
  945SOL     OW 2894   4.165   1.566   1.547 -0.0090  0.1089 -0.1798
  945SOL    HW1 2895   4.218   1.536   1.474 -0.1812 -0.9344  0.1115
  945SOL    HW2 2896   4.118   1.488   1.577 -0.4626  0.6639  0.6069
  946SOL     OW 2897   2.226   3.614   2.437  0.0850 -0.3515  0.2112
  946SOL    HW1 2898   2.190   3.667   2.507 -0.7105 -0.0372 -0.4206
  946SOL    HW2 2899   2.300   3.568   2.477  0.2848  0.6044  0.9781
  947SOL     OW 2900   1.296   0.505   4.106  0.4588  0.2441 -0.3278
  947SOL    HW1 2901   1.317   0.596   4.129 -0.0858 -0.1019  1.7650
  947SOL    HW2 2902   1.234   0.512   4.034  1.7635  1.4578 -1.3961
  948SOL     OW 2903   2.263   1.955   0.100 -0.6118  0.0991  0.3478
  948SOL    HW1 2904   2.183   1.926   0.057 -0.7802 -1.3596  1.5670
  948SOL    HW2 2905   2.323   1.880   0.094 -0.0873  0.4206  1.2570
  949SOL     OW 2906   1.398   4.054   2.545 -0.5314 -0.4602 -0.1110
  949SOL    HW1 2907   1.385   4.092   2.632 -0.6499  0.4798 -0.5219
  949SOL    HW2 2908   1.323   4.086   2.495  0.3195  0.2585 -0.9596
  950SOL     OW 2909   2.705   2.835   3.020 -0.3164  0.5509  0.3127
  950SOL    HW1 2910   2.779   2.843   2.960 -1.0623  1.6008 -0.5138
  950SOL    HW2 2911   2.732   2.883   3.099 -0.7726  2.6078 -0.6924
  951SOL     OW 2912   3.827   3.956   1.844  0.5933  0.4565 -0.3506
  951SOL    HW1 2913   3.830   3.918   1.757  0.0464 -0.1698 -0.0992
  951SOL    HW2 2914   3.855   3.886   1.903 -1.8155 -0.0787  0.2655
  952SOL     OW 2915   1.529   4.097   3.949 -0.3453  0.0075 -0.7128
  952SOL    HW1 2916   1.592   4.169   3.947 -0.1509 -0.0836  0.8443
  952SOL    HW2 2917   1.444   4.140   3.964 -0.1921 -0.0870  0.4955
  953SOL     OW 2918   3.735   5.130   0.147 -0.3373  0.5233  0.0327
  953SOL    HW1 2919   3.718   5.207   0.202 -1.8185 -0.1625  0.5893
  953SOL    HW2 2920   3.732   5.164   0.058 -0.6435  1.1876  0.2819
  954SOL     OW 2921   3.257   4.163   0.692  0.4704  0.2103  0.3579
  954SOL    HW1 2922   3.271   4.219   0.769  0.4539  1.4244 -0.4977
  954SOL    HW2 2923   3.271   4.221   0.617 -1.6844 -0.3807 -0.5821
  955SOL     OW 2924   2.459   1.466   3.356  0.5708  0.3735  0.1143
  955SOL    HW1 2925   2.507   1.485   3.276  0.0565  0.6382 -0.1306
  955SOL    HW2 2926   2.527   1.445   3.420  0.9839  0.2111 -0.3755
  956SOL     OW 2927   0.741   4.600   1.324 -0.0557 -0.3693  0.2427
  956SOL    HW1 2928   0.770   4.603   1.416  1.5279  0.3581 -0.2472
  956SOL    HW2 2929   0.650   4.630   1.328 -0.3797 -1.3905  1.6847
  957SOL     OW 2930   4.269   0.693   1.889 -0.3301  0.2422  0.3223
  957SOL    HW1 2931   4.333   0.757   1.859 -0.6445 -0.0427 -1.0187
  957SOL    HW2 2932   4.213   0.741   1.949  1.5515  0.3202  2.1523
  958SOL     OW 2933   0.397   3.196   3.889  0.2824 -0.0853 -0.0735
  958SOL    HW1 2934   0.367   3.152   3.810  0.3715 -0.7924  0.2768
  958SOL    HW2 2935   0.475   3.244   3.861  0.7182 -0.8912 -0.2680
  959SOL     OW 2936   0.816   3.292   3.352 -0.4817 -0.4471  0.0461
  959SOL    HW1 2937   0.812   3.213   3.406 -0.5795  0.2843  1.1411
  959SOL    HW2 2938   0.839   3.362   3.413 -0.7202  0.4296 -0.8420
  960SOL     OW 2939   0.903   0.655   1.115 -0.4790 -0.6654 -0.2604
  960SOL    HW1 2940   0.864   0.574   1.149  0.5101 -0.8803  0.3950
  960SOL    HW2 2941   0.862   0.725   1.166 -0.7045 -0.8132 -0.2375
  961SOL     OW 2942   0.808   0.180   2.968  0.5968  0.4437  0.0182
  961SOL    HW1 2943   0.892   0.151   3.004  0.5582  1.6774  1.1665
  961SOL    HW2 2944   0.774   0.103   2.922  1.8641 -0.3881  0.4177
  962SOL     OW 2945   4.912   5.017   1.230 -0.4749 -0.3685 -0.1891
  962SOL    HW1 2946   4.892   5.089   1.289  3.1330 -0.2524  1.1642
  962SOL    HW2 2947   4.852   5.028   1.156 -1.5523  2.6362  0.9980
  963SOL     OW 2948   1.923   1.532   1.589  0.3343 -0.2551  0.2146
  963SOL    HW1 2949   1.834   1.518   1.621 -0.4589  1.8086 -0.8823
  963SOL    HW2 2950   1.951   1.445   1.559 -1.2306 -0.9821  0.7251
  964SOL     OW 2951   4.766   3.876   1.999  0.3946 -0.1916 -0.3001
  964SOL    HW1 2952   4.788   3.968   1.988 -1.9847  0.8982  2.5630
  964SOL    HW2 2953   4.671   3.875   2.012  0.4173 -2.9507  0.4840
  965SOL     OW 2954   3.910   0.752   0.547 -0.7390 -0.6633 -0.0296
  965SOL    HW1 2955   3.954   0.821   0.595 -2.3628  0.5459 -0.1878
  965SOL    HW2 2956   3.964   0.738   0.469  0.2964 -0.5155  0.6504
  966SOL     OW 2957   4.634   1.475   1.884  0.5665  0.6163 -0.3371
  966SOL    HW1 2958   4.657   1.494   1.793  0.6839  0.3011 -0.3745
  966SOL    HW2 2959   4.675   1.391   1.902 -2.1070 -0.9667 -1.0309
  967SOL     OW 2960   0.553   5.045   3.632  0.0316 -0.4726  0.3122
  967SOL    HW1 2961   0.475   5.099   3.622  0.1975  0.4545  3.1212
  967SOL    HW2 2962   0.532   4.963   3.587 -1.8179  0.4194 -0.5631
  968SOL     OW 2963   2.499   4.934   4.065  0.0870  0.1689 -0.0466
  968SOL    HW1 2964   2.569   4.988   4.102  1.0119  0.2325 -1.8080
  968SOL    HW2 2965   2.528   4.914   3.976 -2.5104  0.8899 -1.1327
  969SOL     OW 2966   1.700   0.734   1.017  0.2485 -0.0901  0.2689
  969SOL    HW1 2967   1.669   0.757   1.104  1.9560 -0.6815  1.0940
  969SOL    HW2 2968   1.796   0.737   1.025  0.4956  2.0915 -2.2025
  970SOL     OW 2969   3.609   3.607   0.619  0.2509  0.0756  0.9263
  970SOL    HW1 2970   3.677   3.577   0.560 -1.2624  1.5074 -1.7294
  970SOL    HW2 2971   3.567   3.526   0.650  1.8307 -0.7394  1.0352
  971SOL     OW 2972   1.388   0.226   0.979 -0.2730 -0.1765  1.0716
  971SOL    HW1 2973   1.470   0.255   0.940 -1.3848  0.5863 -0.8599
  971SOL    HW2 2974   1.396   0.247   1.072  0.8316  2.0462  0.5427
  972SOL     OW 2975   4.566   1.836   2.439  0.0339 -0.2013  0.6208
  972SOL    HW1 2976   4.596   1.819   2.350 -0.1033 -0.2917  0.5916
  972SOL    HW2 2977   4.554   1.749   2.477 -1.6665 -0.2000  0.1378
  973SOL     OW 2978   2.482   4.580   0.853 -0.2116  0.2392  0.9171
  973SOL    HW1 2979   2.522   4.641   0.915  0.8209 -0.8046  1.3209
  973SOL    HW2 2980   2.472   4.499   0.903 -2.3238  0.2615  0.6527
  974SOL     OW 2981   5.306   2.858   0.302  0.6176 -0.2354  0.6882
  974SOL    HW1 2982   5.384   2.898   0.340 -0.1597  0.7713  1.2670
  974SOL    HW2 2983   5.280   2.791   0.365  0.7876 -0.3015  0.6875
  975SOL     OW 2984   2.890   3.845   0.929 -0.3701 -0.7647  0.1198
  975SOL    HW1 2985   2.860   3.929   0.893  0.9549 -0.5802 -0.6070
  975SOL    HW2 2986   2.811   3.791   0.932 -1.1501  0.3430  0.1431
  976SOL     OW 2987   3.033   0.230   2.327  0.4350  0.0765  0.1061
  976SOL    HW1 2988   3.042   0.297   2.395 -1.0290  0.5025 -0.0837
  976SOL    HW2 2989   3.079   0.267   2.251  1.2981 -0.0061  0.5759
  977SOL     OW 2990   1.364   2.832   2.475  0.5628 -0.7510  0.1046
  977SOL    HW1 2991   1.374   2.833   2.380 -0.9783 -0.3969 -0.0661
  977SOL    HW2 2992   1.454   2.834   2.508  1.0935  0.4019 -1.3259
  978SOL     OW 2993   4.211   4.872   3.030 -0.9745  0.1208 -0.1895
  978SOL    HW1 2994   4.241   4.912   2.949  3.2515 -2.2018 -0.0867
  978SOL    HW2 2995   4.223   4.939   3.097 -1.8132  1.1511 -1.0434
  979SOL     OW 2996   5.046   3.185   2.597 -0.2584 -0.5969  0.4361
  979SOL    HW1 2997   5.103   3.218   2.527 -0.3145 -0.9960  0.1961
  979SOL    HW2 2998   5.010   3.263   2.638  1.8697 -0.2715  1.7995
  980SOL     OW 2999   4.187   1.948   4.098  0.1354  0.2253  0.2286
  980SOL    HW1 3000   4.161   1.897   4.021  1.2874 -1.6580  1.0126
  980SOL    HW2 3001   4.124   2.020   4.102 -1.6005 -1.1446 -0.9365
  981SOL     OW 3002   4.975   3.969   4.349  0.2214  0.6910 -0.1341
  981SOL    HW1 3003   4.903   4.004   4.401  0.5233  2.0043 -0.5667
  981SOL    HW2 3004   4.962   4.006   4.262  0.6863 -0.1117 -0.5536
  982SOL     OW 3005   4.114   3.863   2.000 -0.0037  0.2473 -0.6494
  982SOL    HW1 3006   4.045   3.801   2.023 -0.5283 -0.1679 -3.1003
  982SOL    HW2 3007   4.195   3.812   2.006 -0.2062 -0.0653 -0.5577
  983SOL     OW 3008   0.964   0.971   0.363 -0.0216 -0.5611  0.4558
  983SOL    HW1 3009   0.908   1.039   0.324 -0.1858 -1.1385 -0.3326
  983SOL    HW2 3010   0.951   0.981   0.457 -0.4522  0.1554  0.3307
  984SOL     OW 3011   3.380   2.234   2.587 -0.4511 -0.4983  0.4359
  984SOL    HW1 3012   3.338   2.276   2.512 -0.3361  1.0436  1.1840
  984SOL    HW2 3013   3.444   2.174   2.549  1.8642  2.4786 -0.7910
  985SOL     OW 3014   0.163   0.415   3.190  0.0717 -0.1566  0.4864
  985SOL    HW1 3015   0.076   0.451   3.168 -0.4296 -2.5779 -2.0438
  985SOL    HW2 3016   0.147   0.359   3.266 -0.1970  0.7545  1.1206
  986SOL     OW 3017   3.572   4.844   4.290  0.0565  0.3352  0.7389
  986SOL    HW1 3018   3.657   4.880   4.315  0.0480  0.9267 -0.0507
  986SOL    HW2 3019   3.512   4.918   4.292 -0.1078  0.2445 -0.2350
  987SOL     OW 3020   3.814   2.109   3.107  0.1579  0.3435  0.0032
  987SOL    HW1 3021   3.779   2.162   3.179  0.9400 -0.2267  0.8383
  987SOL    HW2 3022   3.854   2.033   3.151  1.5828  0.5058 -0.9393
  988SOL     OW 3023   2.028   5.007   0.795  0.4613 -0.6734 -0.0613
  988SOL    HW1 3024   1.947   5.055   0.777  1.5407  0.2593 -3.0047
  988SOL    HW2 3025   2.006   4.915   0.775 -0.0230 -0.5244 -0.2311
  989SOL     OW 3026   1.566   4.278   2.928 -0.0174 -0.0177 -0.0227
  989SOL    HW1 3027   1.511   4.244   2.998 -0.2070 -1.2853 -0.7564
  989SOL    HW2 3028   1.634   4.329   2.972 -1.6233  1.4232  0.9161
  990SOL     OW 3029   5.295   0.059   1.245  0.3029  0.3399  0.1930
  990SOL    HW1 3030   5.310   0.133   1.305 -0.7276  1.0856 -0.4359
  990SOL    HW2 3031   5.382   0.022   1.230  0.6808  0.6463  1.5013
  991SOL     OW 3032   0.511   3.621   1.205  0.1908  0.6368 -0.4479
  991SOL    HW1 3033   0.533   3.548   1.147  2.5204 -0.0737  1.1581
  991SOL    HW2 3034   0.567   3.693   1.175  0.4841  0.6509  0.1147
  992SOL     OW 3035   4.059   3.329   1.354  0.4617 -0.0465  0.1533
  992SOL    HW1 3036   3.998   3.367   1.291  0.6008  0.8255  0.5286
  992SOL    HW2 3037   4.146   3.351   1.320  0.5387  0.3787  0.5974
  993SOL     OW 3038   1.966   0.977   0.381  0.4340 -0.3737 -0.2253
  993SOL    HW1 3039   1.974   1.057   0.329 -1.3712 -0.4656 -0.6858
  993SOL    HW2 3040   2.018   0.912   0.333  0.2710  0.0093 -0.9336
  994SOL     OW 3041   4.629   3.485   0.768 -0.2596  0.1357 -0.1021
  994SOL    HW1 3042   4.565   3.417   0.747 -0.3131 -0.1034  0.7970
  994SOL    HW2 3043   4.672   3.455   0.848  1.0258  0.2676 -0.7038
  995SOL     OW 3044   3.947   0.583   1.142 -0.1607 -0.7666 -0.4928
  995SOL    HW1 3045   3.863   0.605   1.183  0.9906  2.5260  0.4067
  995SOL    HW2 3046   3.986   0.667   1.120  2.1523 -2.2461 -2.5722
  996SOL     OW 3047   5.413   2.220   0.999  0.8921  0.0091  0.2407
  996SOL    HW1 3048   5.375   2.134   0.980 -1.7135  1.4226 -1.7373
  996SOL    HW2 3049   5.343   2.269   1.042  1.6564  1.6928 -0.3136
  997SOL     OW 3050   4.529   3.004   3.999 -0.0852 -0.2350 -0.0208
  997SOL    HW1 3051   4.578   3.023   3.918  2.5717  0.6778  1.6778
  997SOL    HW2 3052   4.552   3.075   4.058 -1.9201 -0.9076  1.6071
  998SOL     OW 3053   0.964   3.570   1.607  0.2523  0.3230  0.0223
  998SOL    HW1 3054   0.994   3.502   1.667 -0.2076  0.2277  0.1496
  998SOL    HW2 3055   0.881   3.536   1.572 -1.3298  1.9282  2.0250
  999SOL     OW 3056   2.656   3.580   1.425  0.2615  0.6484  0.0088
  999SOL    HW1 3057   2.583   3.640   1.443 -0.4320  0.1960 -1.1930
  999SOL    HW2 3058   2.615   3.494   1.416  1.0975  0.1965  0.4462
 1000SOL     OW 3059   2.702   2.690   1.535  0.3908  0.3858  0.3008
 1000SOL    HW1 3060   2.731   2.645   1.456 -0.2001 -0.4373  0.5322
 1000SOL    HW2 3061   2.615   2.654   1.552  0.5008  0.5634  1.3109
 1001SOL     OW 3062   0.163   0.843   2.198  0.1296 -0.8396  0.1700
 1001SOL    HW1 3063   0.216   0.781   2.146 -0.7760 -0.9805 -0.6164
 1001SOL    HW2 3064   0.146   0.915   2.137  0.1047 -0.4109  0.6849
 1002SOL     OW 3065   4.519   1.946   1.233 -0.6513  0.2597  0.7851
 1002SOL    HW1 3066   4.537   1.852   1.222 -0.5678  0.3433  0.1573
 1002SOL    HW2 3067   4.602   1.983   1.265 -0.5463  0.1879  0.6009
 1003SOL     OW 3068   5.324   2.780   3.996  0.6421 -0.0120 -0.6526
 1003SOL    HW1 3069   5.335   2.688   4.019  0.6637 -0.1117 -1.0429
 1003SOL    HW2 3070   5.281   2.819   4.072  0.8374 -0.2942 -0.3937
 1004SOL     OW 3071   3.613   1.540   3.188 -0.0862 -0.0441 -0.2263
 1004SOL    HW1 3072   3.578   1.550   3.277  0.5869 -0.2578  0.0729
 1004SOL    HW2 3073   3.625   1.629   3.156 -1.2330  0.0369 -0.4783
 1005SOL     OW 3074   1.745   1.218   2.993  0.8572 -0.4901  0.6811
 1005SOL    HW1 3075   1.827   1.259   3.020  0.4598  2.2033 -1.6560
 1005SOL    HW2 3076   1.727   1.256   2.907 -1.8472 -2.5147  0.2253
 1006SOL     OW 3077   3.388   2.393   4.291  0.2116 -0.0952 -0.4513
 1006SOL    HW1 3078   3.345   2.433   4.366 -0.5514 -1.5833 -0.0467
 1006SOL    HW2 3079   3.379   2.299   4.306  1.0969 -0.4251 -1.8168
 1007SOL     OW 3080   3.803   2.127   0.644 -0.3067 -0.1153 -0.2274
 1007SOL    HW1 3081   3.801   2.223   0.652 -0.3754 -0.1010 -0.4296
 1007SOL    HW2 3082   3.819   2.111   0.551 -0.7151 -0.3074 -0.2623
 1008SOL     OW 3083   3.342   2.601   1.018 -0.4084  0.3536 -0.7164
 1008SOL    HW1 3084   3.419   2.625   1.069  0.0665  0.1885 -1.3320
 1008SOL    HW2 3085   3.350   2.653   0.938 -0.0816 -0.8077 -1.4784
 1009SOL     OW 3086   3.542   0.645   0.748 -0.2721 -0.7744 -0.0723
 1009SOL    HW1 3087   3.569   0.592   0.824  0.0728 -1.1919 -0.4840
 1009SOL    HW2 3088   3.611   0.632   0.684  1.2612  2.3435  0.7657
 1010SOL     OW 3089   1.347   1.418   3.062  0.0050  0.3988 -0.1985
 1010SOL    HW1 3090   1.283   1.370   3.114  0.1065  1.6740  1.1530
 1010SOL    HW2 3091   1.432   1.388   3.094  0.1992 -1.5483 -2.2223
 1011SOL     OW 3092   1.795   0.051   4.282 -0.0915 -0.1055 -0.5451
 1011SOL    HW1 3093   1.705   0.083   4.278  0.3996  1.4067 -0.1205
 1011SOL    HW2 3094   1.813   0.017   4.195 -1.6439 -2.1292 -0.1435
 1012SOL     OW 3095   3.036   4.219   3.712  0.2463  0.4121  0.1523
 1012SOL    HW1 3096   2.942   4.216   3.690  0.2354  2.9318 -0.5311
 1012SOL    HW2 3097   3.080   4.185   3.634 -0.0646  0.1760  0.0773
 1013SOL     OW 3098   4.210   1.055   0.560 -0.0138 -0.3936  0.1435
 1013SOL    HW1 3099   4.190   1.111   0.485 -1.3763 -0.5500  0.3645
 1013SOL    HW2 3100   4.293   1.089   0.594 -0.0860  0.5556 -0.5833
 1014SOL     OW 3101   3.318   3.750   0.118 -0.4526 -0.6394  0.4510
 1014SOL    HW1 3102   3.265   3.805   0.060  0.4775 -1.0951 -0.8828
 1014SOL    HW2 3103   3.404   3.792   0.120 -0.0604 -1.4056  0.3296
 1015SOL     OW 3104   1.830   3.067   2.800  0.0165  0.0287 -0.3183
 1015SOL    HW1 3105   1.788   3.144   2.761 -0.4761  0.2396  0.5846
 1015SOL    HW2 3106   1.757   3.018   2.839  0.4576 -0.2952  0.1013
 1016SOL     OW 3107   2.164   2.690   1.198  0.3180 -0.5638  0.3299
 1016SOL    HW1 3108   2.231   2.729   1.141 -0.1931 -2.0301 -1.3757
 1016SOL    HW2 3109   2.081   2.723   1.164  0.0923  0.5095  1.8480
 1017SOL     OW 3110   4.758   1.840   2.210 -0.2464 -0.1812  0.1964
 1017SOL    HW1 3111   4.769   1.750   2.181 -1.2425  0.1110 -1.1823
 1017SOL    HW2 3112   4.676   1.869   2.170 -0.8301  0.8171  1.9952
 1018SOL     OW 3113   0.553   1.834   4.094 -0.5656 -0.0834  0.6254
 1018SOL    HW1 3114   0.539   1.827   3.999  0.0679 -0.6238  0.5580
 1018SOL    HW2 3115   0.495   1.904   4.122 -0.0394  0.7772 -0.3263
 1019SOL     OW 3116   5.171   1.120   1.306  0.3029 -0.0595 -0.6197
 1019SOL    HW1 3117   5.099   1.063   1.332 -1.1130  1.4187 -1.1480
 1019SOL    HW2 3118   5.139   1.165   1.228  0.9263  2.2165  0.3525
 1020SOL     OW 3119   4.992   3.443   4.006  0.4286  0.0445  0.1350
 1020SOL    HW1 3120   4.991   3.537   4.022  3.0058  0.7408 -2.8687
 1020SOL    HW2 3121   5.041   3.407   4.080 -1.4921  0.8159  1.8775
 1021SOL     OW 3122   5.136   4.609   2.285  0.0837  0.0715  0.0456
 1021SOL    HW1 3123   5.094   4.522   2.280 -1.9029  0.9674  0.0074
 1021SOL    HW2 3124   5.179   4.620   2.201  2.0459 -1.6430  0.7565
 1022SOL     OW 3125   4.170   0.625   2.225  0.0172 -0.4467 -0.3180
 1022SOL    HW1 3126   4.227   0.561   2.266  2.5131  1.8909  0.0868
 1022SOL    HW2 3127   4.228   0.681   2.174 -2.1298  1.0468 -1.2981
 1023SOL     OW 3128   0.566   0.739   3.929 -0.3284 -0.1552 -0.3292
 1023SOL    HW1 3129   0.471   0.751   3.921 -0.3022  2.2069  1.6050
 1023SOL    HW2 3130   0.601   0.781   3.851 -0.8292  2.3807  0.6889
 1024SOL     OW 3131   3.379   0.836   2.621 -0.4212  0.1227 -0.0664
 1024SOL    HW1 3132   3.306   0.816   2.561 -0.4921 -0.1283  0.1024
 1024SOL    HW2 3133   3.457   0.808   2.574 -0.5215 -0.5587  0.1720
 1025SOL     OW 3134   4.644   4.027   1.171  0.1658  0.4905  0.0972
 1025SOL    HW1 3135   4.567   3.973   1.153  1.6283 -1.1984 -1.4309
 1025SOL    HW2 3136   4.691   4.032   1.088  1.9174  1.1357  1.0591
 1026SOL     OW 3137   0.580   2.577   3.950 -0.2981  0.1433 -0.3472
 1026SOL    HW1 3138   0.617   2.659   3.917 -2.3868  0.8043 -1.2107
 1026SOL    HW2 3139   0.491   2.601   3.978 -1.0541 -1.8699 -0.8581
 1027SOL     OW 3140   3.707   0.717   3.154  0.5207  0.4042  0.1204
 1027SOL    HW1 3141   3.797   0.688   3.166  0.4478  0.2378  0.2754
 1027SOL    HW2 3142   3.669   0.651   3.094  0.6888  0.8437 -0.4778
 1028SOL     OW 3143   1.069   2.472   2.503 -0.5846 -0.1677 -0.0788
 1028SOL    HW1 3144   1.069   2.394   2.559  0.7797 -1.2812 -1.5458
 1028SOL    HW2 3145   1.152   2.467   2.455 -0.0108  2.7134  0.4454
 1029SOL     OW 3146   4.770   0.775   4.202 -0.2652  0.5805 -0.4063
 1029SOL    HW1 3147   4.819   0.853   4.175  1.7098 -0.5667 -0.2924
 1029SOL    HW2 3148   4.795   0.760   4.293 -1.6464  0.5372 -0.0105
 1030SOL     OW 3149   0.825   2.077   3.135  0.0984  0.1020 -0.0957
 1030SOL    HW1 3150   0.906   2.117   3.166  1.0046 -1.3893 -0.4338
 1030SOL    HW2 3151   0.853   1.995   3.094 -1.6105 -0.5713  0.0143
 1031SOL     OW 3152   3.212   1.051   2.687  0.2371  0.3280 -0.3606
 1031SOL    HW1 3153   3.291   1.024   2.639  0.6686 -0.0731  0.5512
 1031SOL    HW2 3154   3.244   1.072   2.775 -0.7314 -0.1850  0.1203
 1032SOL     OW 3155   0.099   2.439   3.464  0.0913  0.0702 -0.5411
 1032SOL    HW1 3156   0.110   2.524   3.506  1.5535 -0.1995 -0.3082
 1032SOL    HW2 3157   0.117   2.375   3.533  1.6278 -0.3864 -1.3082
 1033SOL     OW 3158   1.105   3.718   1.261  0.1167  0.4747 -0.4722
 1033SOL    HW1 3159   1.163   3.694   1.333  1.2435  0.7183 -1.2608
 1033SOL    HW2 3160   1.106   3.814   1.260 -0.2250  0.4794 -0.5574
 1034SOL     OW 3161   5.408   4.887   3.571 -0.3756  0.0174 -0.3202
 1034SOL    HW1 3162   5.464   4.868   3.496 -1.0202  2.0496 -1.4056
 1034SOL    HW2 3163   5.343   4.817   3.572  1.4448 -1.7579  0.2843
 1035SOL     OW 3164   2.231   0.033   0.248 -0.4439  0.6240 -0.3565
 1035SOL    HW1 3165   2.181  -0.046   0.228  2.5633 -1.5137 -0.1453
 1035SOL    HW2 3166   2.231   0.038   0.343  1.0062 -0.3762 -0.2673
 1036SOL     OW 3167   4.091   3.291   0.449 -0.1892 -0.1313  0.2282
 1036SOL    HW1 3168   4.125   3.340   0.374 -0.7933 -0.0984 -0.0296
 1036SOL    HW2 3169   4.003   3.264   0.423 -0.6053  0.3165  1.1123
 1037SOL     OW 3170   0.825   2.387   2.104 -0.3417  0.1765 -0.0286
 1037SOL    HW1 3171   0.769   2.411   2.030  0.2804  1.4620 -0.1088
 1037SOL    HW2 3172   0.784   2.429   2.179  1.3780  2.6431 -0.3401
 1038SOL     OW 3173   0.831   2.478   4.326  0.6191  0.2521  0.2461
 1038SOL    HW1 3174   0.887   2.420   4.275 -0.5142 -0.2938 -0.4077
 1038SOL    HW2 3175   0.780   2.419   4.382 -0.2498  0.6434 -0.1261
 1039SOL     OW 3176   5.435   5.103   0.302  0.1418 -0.1360 -0.2029
 1039SOL    HW1 3177   5.467   5.157   0.374 -1.2625 -1.2770  1.3634
 1039SOL    HW2 3178   5.477   5.018   0.315  0.3306 -0.1920 -1.0978
 1040SOL     OW 3179   4.461   2.112   1.026  0.0713 -0.0032 -0.3695
 1040SOL    HW1 3180   4.473   2.040   1.089 -2.6789 -1.9022 -1.8274
 1040SOL    HW2 3181   4.538   2.108   0.970  0.4357 -1.1462  0.1815
 1041SOL     OW 3182   4.173   1.263   3.123 -0.0496  0.7754 -0.1157
 1041SOL    HW1 3183   4.082   1.290   3.133 -0.1954  0.9262 -1.6632
 1041SOL    HW2 3184   4.223   1.342   3.146 -0.3606  1.1355 -0.6379
 1042SOL     OW 3185   3.495   2.691   1.870 -0.0480  0.3249  0.4251
 1042SOL    HW1 3186   3.520   2.783   1.860  1.7795 -0.2351 -0.7091
 1042SOL    HW2 3187   3.578   2.644   1.865 -1.0763 -1.4839 -0.4742
 1043SOL     OW 3188   2.007   4.186   2.156  0.2848 -0.0486 -0.1938
 1043SOL    HW1 3189   1.989   4.276   2.181  1.3117 -0.1512  1.0716
 1043SOL    HW2 3190   1.955   4.133   2.217 -0.3965 -0.3251 -0.9978
 1044SOL     OW 3191   4.606   3.432   2.861 -0.0184 -0.1588  0.0519
 1044SOL    HW1 3192   4.664   3.355   2.866  1.7879  1.2079  2.2189
 1044SOL    HW2 3193   4.614   3.462   2.770  0.0640 -1.8827 -0.5534
 1045SOL     OW 3194   2.826   4.132   1.671  0.3252 -0.0614 -0.6000
 1045SOL    HW1 3195   2.876   4.211   1.649 -0.5847  0.8204  0.3738
 1045SOL    HW2 3196   2.891   4.071   1.706  0.5374  1.8196  2.6438
 1046SOL     OW 3197   1.813   0.303   3.855  0.4066  0.3978 -0.4511
 1046SOL    HW1 3198   1.823   0.304   3.760  1.6649 -0.9313 -0.3730
 1046SOL    HW2 3199   1.805   0.210   3.877 -0.7443  0.7371  0.6790
 1047SOL     OW 3200   4.394   3.695   3.272 -0.2344 -0.3736  0.0376
 1047SOL    HW1 3201   4.430   3.649   3.196 -0.6120 -0.2982 -0.1913
 1047SOL    HW2 3202   4.408   3.788   3.252  0.2291 -0.3730  0.3481
 1048SOL     OW 3203   1.075   0.331   0.920 -0.6033 -0.9201 -0.3181
 1048SOL    HW1 3204   1.099   0.315   1.011  0.2316 -0.3798 -0.4340
 1048SOL    HW2 3205   0.981   0.348   0.922 -0.3921  0.2142  0.5877
 1049SOL     OW 3206   0.400   4.738   0.982  0.1240  0.1004 -0.0210
 1049SOL    HW1 3207   0.345   4.714   0.908  0.1127 -0.7948  0.2624
 1049SOL    HW2 3208   0.454   4.810   0.950 -1.2928  1.0878 -0.2625
 1050SOL     OW 3209   1.026   1.289   1.732 -0.1742  0.2336 -0.3774
 1050SOL    HW1 3210   1.005   1.351   1.802 -0.5893 -2.1098  1.7236
 1050SOL    HW2 3211   1.102   1.327   1.688  0.4954  1.5284  1.7493
 1051SOL     OW 3212   2.013   3.091   0.842 -0.1196 -0.1950  0.1896
 1051SOL    HW1 3213   2.028   3.181   0.870 -1.1188 -0.2724  1.0136
 1051SOL    HW2 3214   1.950   3.056   0.905  1.1534 -1.8489  0.6231
 1052SOL     OW 3215   4.748   2.215   3.496  0.0969  0.1916 -0.1647
 1052SOL    HW1 3216   4.830   2.263   3.504  0.5000 -0.3235 -1.0656
 1052SOL    HW2 3217   4.752   2.149   3.566  0.7119 -0.2037 -0.5648
 1053SOL     OW 3218   4.582   2.490   3.984  0.2910  0.3130 -0.1044
 1053SOL    HW1 3219   4.540   2.487   3.898  0.1113  0.5924 -0.0277
 1053SOL    HW2 3220   4.614   2.579   3.992  0.1085  0.3525  0.2126
 1054SOL     OW 3221   3.631   3.231   3.861  0.0341  0.4031  0.1820
 1054SOL    HW1 3222   3.649   3.154   3.915 -0.8455  0.0129 -0.0520
 1054SOL    HW2 3223   3.711   3.244   3.810  1.2035  1.2661  2.1233
 1055SOL     OW 3224   3.981   3.597   1.756  0.1137  0.2925  0.0280
 1055SOL    HW1 3225   4.008   3.681   1.721 -0.5125  1.1982  1.6117
 1055SOL    HW2 3226   3.946   3.549   1.681 -0.7108  1.9398 -0.6767
 1056SOL     OW 3227   2.606   4.003   2.082 -0.8847 -0.0509 -0.4574
 1056SOL    HW1 3228   2.676   3.944   2.109 -1.4761 -0.1488  0.9383
 1056SOL    HW2 3229   2.628   4.086   2.123 -1.6849 -0.1375  0.1681
 1057SOL     OW 3230   0.758   3.372   4.059  0.2120  0.1915 -0.7251
 1057SOL    HW1 3231   0.796   3.284   4.058 -2.2150 -1.0001  1.3042
 1057SOL    HW2 3232   0.831   3.429   4.084  1.5537 -1.4030 -0.8157
 1058SOL     OW 3233   1.407   0.272   1.277 -0.1116 -0.4588 -0.1205
 1058SOL    HW1 3234   1.418   0.331   1.352  0.4198  0.0502 -0.5858
 1058SOL    HW2 3235   1.338   0.211   1.304 -0.9566  0.6172  0.2206
 1059SOL     OW 3236   2.947   1.358   1.657 -0.7723  0.2263  0.2968
 1059SOL    HW1 3237   2.937   1.422   1.728 -0.7160 -0.8650  1.3370
 1059SOL    HW2 3238   2.966   1.275   1.702  4.1244  0.3009 -1.0955
 1060SOL     OW 3239   0.758   0.616   1.917  0.1132  0.3426 -0.2767
 1060SOL    HW1 3240   0.839   0.655   1.886 -0.2999 -0.6125 -2.7690
 1060SOL    HW2 3241   0.706   0.603   1.838 -1.6324 -0.9595  1.0143
 1061SOL     OW 3242   1.422   2.068   3.850  0.0306 -0.1863 -0.0870
 1061SOL    HW1 3243   1.509   2.091   3.881 -0.2028 -0.0080  0.4342
 1061SOL    HW2 3244   1.390   2.148   3.807 -0.0101 -0.1497  0.0126
 1062SOL     OW 3245   2.217   1.554   0.448  0.1392 -0.4252  0.2292
 1062SOL    HW1 3246   2.210   1.648   0.467 -0.7635 -0.2423 -0.8246
 1062SOL    HW2 3247   2.211   1.511   0.533  2.2725  0.5132  0.9034
 1063SOL     OW 3248   2.134   0.763   0.283 -0.0280  0.2972  0.6486
 1063SOL    HW1 3249   2.150   0.723   0.368  1.9785 -0.8816 -0.1947
 1063SOL    HW2 3250   2.222   0.784   0.250 -0.5603 -1.1312 -1.9320
 1064SOL     OW 3251   4.268   0.678   0.154  0.0834 -0.2174 -0.0983
 1064SOL    HW1 3252   4.267   0.622   0.076 -0.4258 -0.9102  0.4017
 1064SOL    HW2 3253   4.361   0.692   0.172  0.2094 -0.6769 -0.3800
 1065SOL     OW 3254   0.002   4.243   0.877 -0.2253 -0.0003 -0.2687
 1065SOL    HW1 3255   0.026   4.181   0.807 -1.2138 -0.6059 -0.0901
 1065SOL    HW2 3256  -0.091   4.257   0.865 -0.5177 -0.5157  1.2486
 1066SOL     OW 3257   2.517   5.108   2.245 -0.0572  0.5841  0.4800
 1066SOL    HW1 3258   2.489   5.092   2.335  0.0717 -2.0258  0.1441
 1066SOL    HW2 3259   2.588   5.171   2.253 -0.6743  1.1257  2.1059
 1067SOL     OW 3260   0.536   2.572   2.638 -0.1465 -0.7359  0.2853
 1067SOL    HW1 3261   0.504   2.488   2.671 -0.7485 -0.1057  1.3771
 1067SOL    HW2 3262   0.624   2.553   2.607 -0.1608 -1.7179  0.7800
 1068SOL     OW 3263   0.364   4.653   1.549 -0.4892 -0.2060 -0.0551
 1068SOL    HW1 3264   0.400   4.731   1.508  0.9625 -0.1474  1.2176
 1068SOL    HW2 3265   0.390   4.581   1.492 -1.0134  0.1358 -0.7364
 1069SOL     OW 3266   1.998   0.450   0.257  0.6486 -0.5080  0.6048
 1069SOL    HW1 3267   1.982   0.359   0.282  0.1987 -0.6692 -0.2044
 1069SOL    HW2 3268   2.083   0.472   0.295  0.5316 -1.1033  1.2248
 1070SOL     OW 3269   2.826   4.273   4.004 -0.3814 -0.1449 -0.2366
 1070SOL    HW1 3270   2.750   4.319   4.041  0.0588  0.1002  0.3867
 1070SOL    HW2 3271   2.899   4.333   4.017 -0.3382  0.3175 -2.3182
 1071SOL     OW 3272   3.671   4.852   2.556 -0.5864  0.0642 -0.0136
 1071SOL    HW1 3273   3.643   4.887   2.471 -0.9959 -1.3267 -0.4644
 1071SOL    HW2 3274   3.766   4.841   2.547 -0.3814  1.3536  0.2672
 1072SOL     OW 3275   0.001   1.598   0.372  0.0487  0.6585 -0.1933
 1072SOL    HW1 3276   0.040   1.603   0.459  0.2274  1.6428 -0.3268
 1072SOL    HW2 3277  -0.019   1.505   0.361  1.7282  0.2222  0.1485
 1073SOL     OW 3278   4.828   2.995   0.139 -0.0049  0.4249  0.1016
 1073SOL    HW1 3279   4.911   3.029   0.175  1.1528 -0.9305 -1.1571
 1073SOL    HW2 3280   4.845   2.987   0.045 -0.7336 -2.1478  0.1321
 1074SOL     OW 3281   3.222   3.752   0.775 -0.2238  0.0144  0.1041
 1074SOL    HW1 3282   3.277   3.793   0.842 -2.5299 -0.2797  2.3079
 1074SOL    HW2 3283   3.278   3.748   0.697  2.1912  1.4360  1.6524
 1075SOL     OW 3284   1.661   1.484   1.693 -0.6237  0.4449  0.2455
 1075SOL    HW1 3285   1.701   1.432   1.763 -0.6794  0.7694  0.5259
 1075SOL    HW2 3286   1.573   1.446   1.682 -0.8040  0.7114  0.7118
 1076SOL     OW 3287   3.617   1.374   0.345  0.0713  0.3406  0.0509
 1076SOL    HW1 3288   3.561   1.299   0.325 -1.3701  1.9472 -2.4227
 1076SOL    HW2 3289   3.574   1.415   0.421 -0.0121 -0.4589  0.4462
 1077SOL     OW 3290   5.342   1.736   0.154 -0.4458 -0.1763 -0.3779
 1077SOL    HW1 3291   5.366   1.643   0.151  0.1139 -0.1883  2.1376
 1077SOL    HW2 3292   5.340   1.757   0.247 -0.1487  2.4513 -0.8913
 1078SOL     OW 3293   2.088   2.716   2.182 -0.0473  0.5710 -0.0981
 1078SOL    HW1 3294   2.178   2.710   2.216 -0.1886  0.3850  0.2443
 1078SOL    HW2 3295   2.066   2.809   2.191 -0.6103  0.2987  1.6930
 1079SOL     OW 3296   4.715   0.835   1.652 -0.2802 -0.4208  0.0255
 1079SOL    HW1 3297   4.694   0.920   1.614 -0.8388 -1.4055 -1.9986
 1079SOL    HW2 3298   4.799   0.848   1.695 -0.5217  1.2290  0.0426
 1080SOL     OW 3299   3.740   2.398   0.657 -0.5456  0.0089  0.0353
 1080SOL    HW1 3300   3.709   2.441   0.737  1.0153  0.4121  0.4647
 1080SOL    HW2 3301   3.776   2.470   0.604  1.6053 -0.6359  0.5258
 1081SOL     OW 3302   2.926   0.006   2.265 -0.1120  0.4049  0.3380
 1081SOL    HW1 3303   2.980   0.084   2.277  0.6721 -0.0583 -0.1434
 1081SOL    HW2 3304   2.890   0.014   2.176 -0.5657  0.5398  0.5291
 1082SOL     OW 3305   0.251   3.177   0.361  0.1148 -0.4488 -0.3638
 1082SOL    HW1 3306   0.189   3.236   0.403 -1.3421 -0.5020 -2.3147
 1082SOL    HW2 3307   0.310   3.234   0.312 -0.5032 -0.5104 -1.2103
 1083SOL     OW 3308   3.492   2.179   1.031  0.1450 -0.0337  0.0812
 1083SOL    HW1 3309   3.535   2.224   1.103  0.0688  0.5827 -0.2561
 1083SOL    HW2 3310   3.563   2.151   0.974  0.2600 -1.1928  0.7705
 1084SOL     OW 3311   0.885   5.101   3.515  0.0761 -0.7330 -0.3484
 1084SOL    HW1 3312   0.797   5.119   3.483 -0.0517 -0.6051  0.0683
 1084SOL    HW2 3313   0.922   5.188   3.534  0.0807 -0.8183  0.0301
 1085SOL     OW 3314   1.665   2.584   2.985  0.0828 -0.1027  0.5430
 1085SOL    HW1 3315   1.573   2.609   2.987 -0.5585 -2.0879 -0.7593
 1085SOL    HW2 3316   1.713   2.666   2.996 -1.8281  1.1171  0.2160
 1086SOL     OW 3317   0.976   0.690   0.621 -0.0490  0.1186 -0.1198
 1086SOL    HW1 3318   1.014   0.603   0.610 -0.4984 -0.0742 -0.1962
 1086SOL    HW2 3319   1.046   0.742   0.660  1.0119  0.3496 -2.2039
 1087SOL     OW 3320   5.293   2.100   0.360 -0.2494 -0.6166  0.0098
 1087SOL    HW1 3321   5.382   2.111   0.395 -0.4772  2.6052 -0.1441
 1087SOL    HW2 3322   5.302   2.120   0.267 -1.4088  1.9248  0.3775
 1088SOL     OW 3323   3.384   0.330   0.886 -0.1637  0.1348  0.0662
 1088SOL    HW1 3324   3.311   0.284   0.926  0.0633 -0.1329  0.1808
 1088SOL    HW2 3325   3.425   0.264   0.829 -1.2259  0.8579 -1.5837
 1089SOL     OW 3326   2.525   2.338   1.836 -0.4496  0.3199 -0.3102
 1089SOL    HW1 3327   2.529   2.243   1.832 -1.4640  0.2483 -0.0395
 1089SOL    HW2 3328   2.432   2.359   1.822 -0.4380  1.1954  0.7580
 1090SOL     OW 3329   2.293   3.092   3.749  0.6490 -0.2984  0.3294
 1090SOL    HW1 3330   2.352   3.023   3.781 -0.5975 -1.6234 -0.1213
 1090SOL    HW2 3331   2.349   3.169   3.741  1.7915 -0.8488  2.2497
 1091SOL     OW 3332   4.972   0.201   4.031  0.6428  0.0378 -0.0123
 1091SOL    HW1 3333   4.897   0.233   4.081  1.1745  1.0837  0.1585
 1091SOL    HW2 3334   4.970   0.106   4.041 -2.3041 -0.2858 -2.3719
 1092SOL     OW 3335   3.801   2.065   2.457  0.5262 -0.4886  0.1851
 1092SOL    HW1 3336   3.842   2.062   2.370  1.2654 -0.4242  0.5282
 1092SOL    HW2 3337   3.873   2.051   2.518  0.0400 -0.3322  0.8015
 1093SOL     OW 3338   1.255   0.333   0.278  0.4658 -0.2818 -0.2120
 1093SOL    HW1 3339   1.220   0.329   0.190  1.7081  1.2574 -0.8400
 1093SOL    HW2 3340   1.334   0.387   0.270  0.4362  0.1834  1.8856
 1094SOL     OW 3341   0.277   1.293   2.730  0.2782  0.5496 -0.3409
 1094SOL    HW1 3342   0.274   1.331   2.818  1.3235  0.5506 -0.2949
 1094SOL    HW2 3343   0.213   1.344   2.680 -1.4073 -0.3646  0.7466
 1095SOL     OW 3344   5.281   4.758   4.091 -0.3891  0.9353  0.0342
 1095SOL    HW1 3345   5.344   4.730   4.157 -1.8053 -0.1356  0.9949
 1095SOL    HW2 3346   5.334   4.778   4.014  1.2805  1.8780  1.3566
 1096SOL     OW 3347   0.990   0.328   4.238  0.1391  0.5157 -0.5552
 1096SOL    HW1 3348   1.081   0.335   4.268  0.3266 -2.0343 -0.2764
 1096SOL    HW2 3349   0.939   0.370   4.307  1.0505  1.2036 -0.2789
 1097SOL     OW 3350   1.783   4.226   2.479 -0.1136 -0.1619  0.1813
 1097SOL    HW1 3351   1.777   4.250   2.571 -1.2493 -2.2827  0.7179
 1097SOL    HW2 3352   1.761   4.306   2.431 -1.1505  0.5361  1.7688
 1098SOL     OW 3353   5.147   0.425   1.515 -0.0988 -0.0254  0.9097
 1098SOL    HW1 3354   5.189   0.339   1.506 -0.3669 -0.1997  1.2776
 1098SOL    HW2 3355   5.209   0.477   1.566 -0.4462 -0.3766  1.7191
 1099SOL     OW 3356   1.779   3.674   2.792 -0.1747 -0.5344 -0.5511
 1099SOL    HW1 3357   1.684   3.674   2.805 -0.1516 -0.3056 -0.3783
 1099SOL    HW2 3358   1.816   3.674   2.880 -0.0078 -1.0688 -0.6117
 1100SOL     OW 3359   0.820   3.097   3.820  0.0162 -0.6365 -0.1156
 1100SOL    HW1 3360   0.780   3.037   3.884  0.2990 -0.1003  0.5753
 1100SOL    HW2 3361   0.903   3.123   3.860 -0.7933  1.4229  0.3126
 1101SOL     OW 3362   2.741   2.889   4.415 -0.1246  0.2062 -0.4832
 1101SOL    HW1 3363   2.820   2.932   4.382  0.4657 -0.9020 -0.5741
 1101SOL    HW2 3364   2.741   2.906   4.509  0.3664 -0.0035 -0.4432
 1102SOL     OW 3365   4.907   3.806   3.522 -0.1476 -0.2770 -0.1254
 1102SOL    HW1 3366   4.813   3.790   3.529 -0.0432 -1.2825 -0.9128
 1102SOL    HW2 3367   4.918   3.849   3.437  0.1646 -0.6704 -0.2868
 1103SOL     OW 3368   5.369   1.515   1.704  0.5708  0.2562 -0.4564
 1103SOL    HW1 3369   5.463   1.532   1.701  0.8242 -0.9282  0.1522
 1103SOL    HW2 3370   5.342   1.542   1.792  0.7184 -1.0716  0.0273
 1104SOL     OW 3371   0.680   4.957   3.114  0.1790  0.4508  0.6176
 1104SOL    HW1 3372   0.622   5.032   3.103  0.5988  0.7653  0.5397
 1104SOL    HW2 3373   0.768   4.993   3.106  0.3719 -0.2081 -0.4441
 1105SOL     OW 3374   3.370   0.653   0.044 -0.5840  0.0696  0.5263
 1105SOL    HW1 3375   3.346   0.648   0.137 -0.2547 -0.4051  0.5900
 1105SOL    HW2 3376   3.295   0.616  -0.002  0.1331 -1.7374  0.7470
 1106SOL     OW 3377   0.576   1.205   3.072 -0.3246 -0.4169 -0.4647
 1106SOL    HW1 3378   0.609   1.122   3.107 -0.6328 -0.3868 -0.0988
 1106SOL    HW2 3379   0.636   1.227   3.001  0.1971 -0.5682 -0.0688
 1107SOL     OW 3380   5.058   3.140   4.456 -0.2042 -0.3321 -0.3688
 1107SOL    HW1 3381   4.979   3.087   4.464 -0.7664  0.2265 -1.7905
 1107SOL    HW2 3382   5.096   3.140   4.543 -2.0011 -0.2717  0.4702
 1108SOL     OW 3383   3.819   2.447   2.772  0.4628 -0.3036 -0.3662
 1108SOL    HW1 3384   3.900   2.498   2.786  1.1977 -1.7138  0.8173
 1108SOL    HW2 3385   3.750   2.501   2.810  1.4386 -0.7760  2.3001
 1109SOL     OW 3386   4.007   3.783   1.375  0.9058 -0.1509 -0.0461
 1109SOL    HW1 3387   3.958   3.740   1.305 -1.7424 -0.3267  1.7357
 1109SOL    HW2 3388   3.996   3.877   1.358 -1.0139 -0.1623  0.8241
 1110SOL     OW 3389   3.252   2.269   0.677  0.0014 -0.0716 -0.4459
 1110SOL    HW1 3390   3.243   2.300   0.586  0.9976 -1.4057 -1.0395
 1110SOL    HW2 3391   3.336   2.305   0.705 -0.2327  0.2072 -0.1010
 1111SOL     OW 3392   1.112   4.246   3.450  1.1603  0.1484  0.4363
 1111SOL    HW1 3393   1.092   4.329   3.408  1.4644 -0.9706 -2.1137
 1111SOL    HW2 3394   1.055   4.183   3.407  2.6370 -1.3539  0.5579
 1112SOL     OW 3395   5.020   2.999   0.631 -0.4783  0.0881  0.2802
 1112SOL    HW1 3396   5.096   3.050   0.604  0.6255 -0.8228  1.5551
 1112SOL    HW2 3397   5.005   3.025   0.722 -1.8390  0.4018 -0.0020
 1113SOL     OW 3398   4.041   0.972   3.000  0.0810  0.0378  0.0305
 1113SOL    HW1 3399   3.997   1.056   2.988  0.1920  0.0394 -0.3755
 1113SOL    HW2 3400   4.125   0.995   3.039  0.4642  0.1999 -0.8568
 1114SOL     OW 3401   5.022   0.390   2.235  0.2260  0.1154 -0.1400
 1114SOL    HW1 3402   5.053   0.465   2.286 -0.7375  0.4786 -0.0511
 1114SOL    HW2 3403   5.090   0.375   2.170  1.3471 -0.1723  1.0468
 1115SOL     OW 3404   4.039   3.989   0.817  0.6304  0.5092 -0.9958
 1115SOL    HW1 3405   4.101   4.047   0.861  0.9916  1.5391 -2.7544
 1115SOL    HW2 3406   3.988   3.949   0.888  1.0829  2.1641  0.3223
 1116SOL     OW 3407   0.090   1.266   2.043 -0.5415 -0.4524 -0.7911
 1116SOL    HW1 3408   0.182   1.245   2.060 -0.8851 -2.0001 -0.7503
 1116SOL    HW2 3409   0.093   1.353   2.004  0.7471  0.5498  1.3519
 1117SOL     OW 3410   2.934   2.333   1.140  1.0371  0.3748 -0.8872
 1117SOL    HW1 3411   3.010   2.337   1.081  1.5285  0.3160 -0.2687
 1117SOL    HW2 3412   2.967   2.368   1.223  0.3382  0.5047 -0.6596
 1118SOL     OW 3413   3.851   1.070   0.672  0.1472 -0.4675 -0.0988
 1118SOL    HW1 3414   3.767   1.027   0.690 -0.1263  0.4264  0.8824
 1118SOL    HW2 3415   3.832   1.164   0.676  1.4155 -0.2087  1.5370
 1119SOL     OW 3416   4.737   1.836   3.932  0.3865  0.1129  0.0831
 1119SOL    HW1 3417   4.790   1.906   3.894  1.0025 -0.2594  0.2452
 1119SOL    HW2 3418   4.720   1.778   3.858  1.7702 -0.7259  0.3920
 1120SOL     OW 3419   4.617   2.750   4.104  0.4208 -0.1816  0.2526
 1120SOL    HW1 3420   4.600   2.842   4.082  0.2686  0.1193  1.5438
 1120SOL    HW2 3421   4.599   2.744   4.198  0.2713 -1.5764  0.1570
 1121SOL     OW 3422   0.367   0.910   0.965  0.8444  0.7533  0.6596
 1121SOL    HW1 3423   0.320   0.946   1.040 -0.7971 -0.9869  0.5379
 1121SOL    HW2 3424   0.310   0.926   0.891  0.6672 -0.9077  0.4092
 1122SOL     OW 3425   5.000   2.743   2.430 -0.5953 -0.2939 -0.0889
 1122SOL    HW1 3426   4.985   2.674   2.494 -1.2972  0.3209  0.4365
 1122SOL    HW2 3427   5.008   2.823   2.483 -2.0874  0.3619 -0.7861
 1123SOL     OW 3428   0.587   1.042   2.736 -0.5812 -0.0782 -0.1079
 1123SOL    HW1 3429   0.649   1.090   2.789 -0.5668  0.7928 -0.8969
 1123SOL    HW2 3430   0.640   0.977   2.689 -0.4800 -0.2751  0.2704
 1124SOL     OW 3431   3.554   5.041   2.167 -0.1264  0.2160  0.4272
 1124SOL    HW1 3432   3.612   4.966   2.151 -2.4764 -1.1963 -2.1860
 1124SOL    HW2 3433   3.600   5.115   2.128  0.2363 -0.7591 -1.0736
 1125SOL     OW 3434   1.852   3.715   3.106 -0.2370 -0.2412  0.1539
 1125SOL    HW1 3435   1.816   3.633   3.141 -0.6015 -0.0666  0.1955
 1125SOL    HW2 3436   1.781   3.779   3.117  0.3787  0.3229  1.0417
 1126SOL     OW 3437   4.010   2.094   1.687  0.1297 -0.2306  0.1227
 1126SOL    HW1 3438   3.941   2.160   1.701 -0.8258 -0.9161 -1.0940
 1126SOL    HW2 3439   4.070   2.135   1.625  0.0589 -0.1413  0.1125
 1127SOL     OW 3440   3.702   2.718   2.371  0.3201 -0.1841  0.2450
 1127SOL    HW1 3441   3.692   2.740   2.278 -0.9572  0.2739  0.4677
 1127SOL    HW2 3442   3.616   2.686   2.397  0.8037 -0.7783  1.1570
 1128SOL     OW 3443   5.427   1.092   2.811 -0.1879  0.1433  0.0995
 1128SOL    HW1 3444   5.493   1.133   2.866  2.4492 -0.9170 -2.0269
 1128SOL    HW2 3445   5.405   1.158   2.746  1.3554 -0.5042 -1.1568
 1129SOL     OW 3446   5.060   2.481   1.757 -0.7374 -0.5808  0.1169
 1129SOL    HW1 3447   5.041   2.556   1.813 -0.8695 -1.7910  1.8068
 1129SOL    HW2 3448   5.068   2.517   1.669 -0.6866  1.3992  0.8824
 1130SOL     OW 3449   4.075   3.481   2.370 -0.3302  0.2923 -0.0474
 1130SOL    HW1 3450   4.090   3.398   2.326 -1.3768 -0.1396  0.3889
 1130SOL    HW2 3451   3.983   3.502   2.353 -0.6245  0.3701  1.4555
 1131SOL     OW 3452   2.123   0.300   0.643 -0.0423 -0.3035 -0.0658
 1131SOL    HW1 3453   2.144   0.340   0.727 -0.0681 -1.2346  0.4043
 1131SOL    HW2 3454   2.028   0.313   0.633  0.1651  0.9349 -0.5775
 1132SOL     OW 3455   2.277   4.448   3.831 -0.0167 -0.9837  0.1213
 1132SOL    HW1 3456   2.300   4.505   3.758  1.6377  0.4004  1.6159
 1132SOL    HW2 3457   2.340   4.376   3.826  0.7867 -0.3512  0.7170
 1133SOL     OW 3458   3.032   3.934   1.693 -0.3238  0.0220 -1.0164
 1133SOL    HW1 3459   2.957   3.877   1.712 -0.6032  0.5830 -0.4023
 1133SOL    HW2 3460   3.042   3.929   1.598 -0.1128 -1.3241 -0.9423
 1134SOL     OW 3461   3.080   3.850   1.172 -0.0465 -0.0305  0.0438
 1134SOL    HW1 3462   3.001   3.841   1.119  0.6037  0.2613 -1.0277
 1134SOL    HW2 3463   3.090   3.944   1.184 -0.8642 -0.1251  1.8064
 1135SOL     OW 3464   3.070   4.739   0.278 -0.6946  0.6507  0.5007
 1135SOL    HW1 3465   3.131   4.802   0.239  1.6567 -0.9421  1.3563
 1135SOL    HW2 3466   2.983   4.775   0.260  0.3772  2.0393 -2.5330
 1136SOL     OW 3467   0.041   4.068   1.464  0.1165  0.1580 -0.3022
 1136SOL    HW1 3468   0.014   4.096   1.377 -0.7734 -0.3923 -0.2209
 1136SOL    HW2 3469   0.137   4.063   1.459  0.0228 -1.0210 -1.6269
 1137SOL     OW 3470   2.611   0.692   0.425  0.7528 -1.0002  0.1131
 1137SOL    HW1 3471   2.697   0.727   0.451  0.8750 -0.6327 -0.7320
 1137SOL    HW2 3472   2.550   0.762   0.445  0.5640 -1.4749  1.2319
 1138SOL     OW 3473   4.150   1.763   3.544 -0.3702 -0.6636  0.1542
 1138SOL    HW1 3474   4.193   1.713   3.613  0.6791 -0.1868 -0.1461
 1138SOL    HW2 3475   4.064   1.784   3.581  0.1247 -0.5302  1.2715
 1139SOL     OW 3476   1.643   0.860   1.301  0.5666  0.0066  0.1694
 1139SOL    HW1 3477   1.630   0.941   1.350 -0.0946 -0.0309  0.0654
 1139SOL    HW2 3478   1.613   0.791   1.361  3.3373 -0.4251  1.2221
 1140SOL     OW 3479   0.946   4.162   1.013  0.5067  0.2209 -0.4178
 1140SOL    HW1 3480   0.861   4.200   1.037 -0.1678 -1.1445 -0.5793
 1140SOL    HW2 3481   0.984   4.227   0.954 -0.7040  0.5702 -0.8582
 1141SOL     OW 3482   1.865   3.064   1.607  0.0908 -0.2565  0.5487
 1141SOL    HW1 3483   1.783   3.095   1.569 -0.4586 -1.3638  0.7994
 1141SOL    HW2 3484   1.855   2.969   1.611  0.6005 -0.2598  2.3837
 1142SOL     OW 3485   4.227   3.501   2.626 -0.2364 -0.1804 -0.2081
 1142SOL    HW1 3486   4.221   3.500   2.530  1.1948 -3.0596 -0.3877
 1142SOL    HW2 3487   4.262   3.414   2.648 -0.1530  0.5470  2.9158
 1143SOL     OW 3488   3.137   3.221   3.040  0.5227 -0.0660 -0.0317
 1143SOL    HW1 3489   3.085   3.236   3.119  0.2617 -0.4623 -0.1210
 1143SOL    HW2 3490   3.147   3.307   3.000  0.0750  0.0370  0.0750
 1144SOL     OW 3491   2.039   3.251   1.578  0.0905 -0.4973  0.4216
 1144SOL    HW1 3492   1.986   3.314   1.529  0.9762 -1.0461 -1.3176
 1144SOL    HW2 3493   1.978   3.180   1.599  0.0616 -1.0768 -1.4757
 1145SOL     OW 3494   4.700   2.231   4.040  0.4348 -0.1352  0.3901
 1145SOL    HW1 3495   4.677   2.214   4.132 -1.2451 -1.9293 -0.2947
 1145SOL    HW2 3496   4.661   2.316   4.021  0.2721 -0.0288  1.1614
 1146SOL     OW 3497   1.163   1.622   0.568 -0.3950 -0.1943  0.6650
 1146SOL    HW1 3498   1.246   1.659   0.597  0.2948 -0.6986 -0.6070
 1146SOL    HW2 3499   1.097   1.681   0.605  0.5926  1.2028  0.2727
 1147SOL     OW 3500   1.641   0.160   1.427  0.0147  0.8687  0.3350
 1147SOL    HW1 3501   1.728   0.172   1.467 -0.9736 -0.9593  3.4257
 1147SOL    HW2 3502   1.595   0.242   1.444  0.6572  1.3061 -0.0104
 1148SOL     OW 3503   3.412   4.640   3.289  0.4395 -0.4753 -0.1999
 1148SOL    HW1 3504   3.507   4.625   3.296  0.8744  0.6388 -2.5927
 1148SOL    HW2 3505   3.402   4.690   3.208 -2.3052 -1.3157 -0.4705
 1149SOL     OW 3506   0.989   3.115   2.675  0.3160 -0.3223 -0.0704
 1149SOL    HW1 3507   1.049   3.047   2.643  0.1922 -0.3819 -0.1756
 1149SOL    HW2 3508   0.973   3.169   2.597 -0.1832 -0.6099 -0.1674
 1150SOL     OW 3509   1.136   2.749   3.106 -0.6468 -0.0379 -0.0435
 1150SOL    HW1 3510   1.068   2.770   3.042 -1.5177 -0.8420  0.5783
 1150SOL    HW2 3511   1.104   2.787   3.188 -0.2765 -0.2965  0.2200
 1151SOL     OW 3512   4.215   2.577   3.752 -0.0303 -1.2421 -0.5610
 1151SOL    HW1 3513   4.200   2.538   3.838  3.6924 -0.6501  0.5299
 1151SOL    HW2 3514   4.214   2.671   3.767  0.6263 -1.1283 -1.1635
 1152SOL     OW 3515   2.959   4.838   2.137  0.4670  0.2937 -0.5463
 1152SOL    HW1 3516   2.963   4.763   2.196  1.5764 -0.4491 -1.5406
 1152SOL    HW2 3517   2.867   4.844   2.112  0.6755 -2.1674 -2.2417
 1153SOL     OW 3518   0.126   0.848   4.456  0.7595  0.1054 -0.1238
 1153SOL    HW1 3519   0.104   0.902   4.380 -0.8155  0.5601  0.6103
 1153SOL    HW2 3520   0.042   0.819   4.491  1.4612 -0.4986  1.1697
 1154SOL     OW 3521   1.838   0.142   2.063  0.3909 -0.4995  0.2999
 1154SOL    HW1 3522   1.919   0.094   2.046  0.7582  0.3468 -0.4460
 1154SOL    HW2 3523   1.813   0.178   1.978  0.3051  0.8735  0.8668
 1155SOL     OW 3524   0.080   2.957   2.103 -0.0749 -0.0063  0.7426
 1155SOL    HW1 3525   0.032   3.020   2.050 -1.1524  0.1955  1.9019
 1155SOL    HW2 3526   0.135   3.011   2.160  0.5041 -0.1942  0.3717
 1156SOL     OW 3527   4.983   3.995   1.750 -0.2053 -0.3106  0.3890
 1156SOL    HW1 3528   5.073   4.015   1.776 -0.1872 -0.6377  0.5741
 1156SOL    HW2 3529   4.930   4.059   1.798  0.0222  0.7400 -0.7198
 1157SOL     OW 3530   0.189   2.889   1.425  0.2588 -0.6797 -0.1567
 1157SOL    HW1 3531   0.240   2.965   1.454  0.1350 -1.1976  1.4791
 1157SOL    HW2 3532   0.253   2.818   1.419 -0.0550 -1.0614  0.8343
 1158SOL     OW 3533   0.307   5.023   3.316  0.5495 -0.0264 -0.5483
 1158SOL    HW1 3534   0.367   5.049   3.247  1.4963  1.7596  0.8821
 1158SOL    HW2 3535   0.307   5.096   3.377 -2.7611 -0.1236 -0.2512
 1159SOL     OW 3536   1.780   1.992   2.128 -0.6373  0.1520  0.1338
 1159SOL    HW1 3537   1.818   1.930   2.190  1.0294  0.7950 -0.1683
 1159SOL    HW2 3538   1.794   2.078   2.167 -2.6959  0.4001  0.4330
 1160SOL     OW 3539   0.217   1.709   1.868  0.3527 -0.2489  0.2724
 1160SOL    HW1 3540   0.152   1.724   1.936 -0.7347 -1.1737 -0.5133
 1160SOL    HW2 3541   0.232   1.614   1.870  1.6220 -0.0590  0.3774
 1161SOL     OW 3542   1.696   1.976   1.441 -0.2902 -0.0139 -0.0573
 1161SOL    HW1 3543   1.689   1.890   1.481 -4.0866 -0.1167 -0.5357
 1161SOL    HW2 3544   1.689   1.960   1.347  0.7563  0.7484 -0.2945
 1162SOL     OW 3545   1.898   0.133   1.556  0.0296 -0.5473  0.2452
 1162SOL    HW1 3546   1.901   0.038   1.569  1.7932 -0.2543  2.3564
 1162SOL    HW2 3547   1.989   0.159   1.543 -0.4808  0.8281 -0.9224
 1163SOL     OW 3548   3.688   4.086   4.309  0.1610 -0.2699  0.2991
 1163SOL    HW1 3549   3.706   4.150   4.240 -0.3502 -0.5848 -0.1310
 1163SOL    HW2 3550   3.594   4.093   4.325  0.1775 -0.6084  0.5578
 1164SOL     OW 3551   3.018   4.614   1.132 -0.4488  0.2275  0.1916
 1164SOL    HW1 3552   2.925   4.612   1.156 -0.3174  0.6873  0.7343
 1164SOL    HW2 3553   3.021   4.666   1.052 -0.6522  0.2233  0.1804
 1165SOL     OW 3554   3.632   0.632   2.281 -0.8089 -0.2037 -0.0574
 1165SOL    HW1 3555   3.705   0.690   2.262 -1.1687  0.2204 -0.1487
 1165SOL    HW2 3556   3.577   0.636   2.203 -1.1658 -0.1626  0.1960
 1166SOL     OW 3557   2.005   0.847   3.155 -0.0644  0.1786 -0.5228
 1166SOL    HW1 3558   1.921   0.842   3.109 -0.8467 -0.2600  0.8876
 1166SOL    HW2 3559   2.034   0.756   3.162 -0.7212  0.0576  1.1446
 1167SOL     OW 3560   5.114   0.772   3.758 -0.0904  0.1559  0.2587
 1167SOL    HW1 3561   5.034   0.720   3.750  0.4422 -0.4671 -1.6209
 1167SOL    HW2 3562   5.093   0.856   3.718 -0.2884  0.6014  1.2815
 1168SOL     OW 3563   5.169   2.440   4.287 -0.4079 -0.5220 -0.0251
 1168SOL    HW1 3564   5.178   2.461   4.380 -1.7103  1.4705 -0.2840
 1168SOL    HW2 3565   5.137   2.350   4.285  0.9670 -1.0842  1.3822
 1169SOL     OW 3566   0.466   0.824   2.279 -0.5350 -0.1280 -0.8027
 1169SOL    HW1 3567   0.480   0.759   2.348 -0.0265 -1.4632 -2.1079
 1169SOL    HW2 3568   0.393   0.878   2.311  1.3652  1.0176  1.9364
 1170SOL     OW 3569   0.309   1.188   3.171 -0.1562  0.2141 -0.8356
 1170SOL    HW1 3570   0.388   1.239   3.157 -0.2022 -0.3883 -4.2364
 1170SOL    HW2 3571   0.336   1.098   3.152 -0.1982 -1.2394  4.4592
 1171SOL     OW 3572   3.134   0.885   1.421  0.4269 -0.0555 -0.0231
 1171SOL    HW1 3573   3.081   0.863   1.498  3.3240 -3.2178  1.3348
 1171SOL    HW2 3574   3.130   0.806   1.367 -0.8794  1.8102 -2.8812
 1172SOL     OW 3575   1.109   2.461   2.091 -0.3681 -0.3011 -0.0225
 1172SOL    HW1 3576   1.135   2.545   2.054 -1.3694  0.4924  1.0297
 1172SOL    HW2 3577   1.014   2.462   2.088 -0.4003 -1.1912  0.4536
 1173SOL     OW 3578   1.557   0.949   3.823  0.1131 -0.5333 -0.1865
 1173SOL    HW1 3579   1.544   0.889   3.896  1.0907 -0.0378  0.4213
 1173SOL    HW2 3580   1.622   0.906   3.767  1.1000  0.1077  0.4467
 1174SOL     OW 3581   3.812   1.235   0.981  0.3470  0.3688  0.2645
 1174SOL    HW1 3582   3.807   1.286   1.062 -0.5156  1.3909 -0.4036
 1174SOL    HW2 3583   3.745   1.273   0.924 -0.2535 -1.4590 -0.3164
 1175SOL     OW 3584   1.571   1.795   0.819 -0.1786  0.2213  0.3288
 1175SOL    HW1 3585   1.629   1.749   0.880  1.6851 -0.8569 -2.1005
 1175SOL    HW2 3586   1.607   1.883   0.812 -0.2332  0.2628  0.5730
 1176SOL     OW 3587   4.307   0.247   3.574  0.0801 -0.2110  0.0462
 1176SOL    HW1 3588   4.318   0.228   3.667  1.0252  1.2310  0.2674
 1176SOL    HW2 3589   4.219   0.283   3.567 -0.0619 -0.4956  0.3548
 1177SOL     OW 3590   2.718   2.644   0.771 -0.2942 -0.4929  0.5814
 1177SOL    HW1 3591   2.787   2.580   0.785  0.3576  0.0051 -0.1862
 1177SOL    HW2 3592   2.668   2.645   0.852 -1.3033 -3.1009  0.0655
 1178SOL     OW 3593   3.920   1.147   2.643 -0.1564 -0.0362  0.2271
 1178SOL    HW1 3594   4.003   1.157   2.595  0.6306 -1.0471  1.3154
 1178SOL    HW2 3595   3.857   1.197   2.592  0.9022 -0.0939 -1.1975
 1179SOL     OW 3596   1.532   4.967   3.329  0.3735 -0.0108 -0.5569
 1179SOL    HW1 3597   1.467   4.935   3.267  0.4051 -1.0766 -0.0565
 1179SOL    HW2 3598   1.482   5.022   3.390  0.1296  0.0425 -0.8034
 1180SOL     OW 3599   2.638   4.415   4.352  0.7063 -0.2132 -0.0879
 1180SOL    HW1 3600   2.715   4.434   4.299  0.7813 -0.9640 -0.2590
 1180SOL    HW2 3601   2.564   4.449   4.302  0.7892 -0.8190 -0.6339
 1181SOL     OW 3602   3.298   2.542   0.325  0.6213 -0.1461  0.1350
 1181SOL    HW1 3603   3.393   2.541   0.333  0.5466 -0.2221  1.1534
 1181SOL    HW2 3604   3.276   2.457   0.285  0.8965 -0.6765  1.0855
 1182SOL     OW 3605   2.721   5.152   1.662  0.2170  0.7101 -0.1514
 1182SOL    HW1 3606   2.764   5.124   1.581  0.5403  2.4455 -0.6279
 1182SOL    HW2 3607   2.793   5.170   1.722 -0.0276 -3.2110  1.5967
 1183SOL     OW 3608   1.224   3.236   4.358 -0.1169  0.4058  0.3192
 1183SOL    HW1 3609   1.161   3.167   4.377 -1.9944  1.3940 -1.8468
 1183SOL    HW2 3610   1.208   3.301   4.427 -0.3085 -0.0756  0.7409
 1184SOL     OW 3611   5.357   1.040   3.985 -0.2584 -0.5516  0.3322
 1184SOL    HW1 3612   5.303   0.968   3.953  0.7154 -0.8048 -0.7654
 1184SOL    HW2 3613   5.399   1.076   3.907  0.9209 -0.1625  1.1139
 1185SOL     OW 3614   2.267   3.410   0.981 -0.0074  0.1433  0.0491
 1185SOL    HW1 3615   2.181   3.405   0.940 -0.0738  0.0671  0.1966
 1185SOL    HW2 3616   2.277   3.502   1.006  0.2387  0.2934 -0.5735
 1186SOL     OW 3617   0.710   1.860   1.673  0.3800  0.0456  0.0379
 1186SOL    HW1 3618   0.695   1.952   1.697 -1.3231  0.1305 -1.1636
 1186SOL    HW2 3619   0.635   1.813   1.710 -0.3048 -0.3815 -1.7928
 1187SOL     OW 3620   3.957   1.911   3.198  0.1273 -0.2031 -0.5698
 1187SOL    HW1 3621   3.963   1.816   3.190 -0.5462 -0.3224  0.2406
 1187SOL    HW2 3622   4.035   1.935   3.247  0.1735 -0.3667 -0.5606
 1188SOL     OW 3623   1.937   4.656   3.414 -0.4817  0.2386 -1.0586
 1188SOL    HW1 3624   1.969   4.746   3.402  0.4270 -0.1518 -1.7381
 1188SOL    HW2 3625   1.974   4.628   3.498  0.3509  0.0576 -1.4744
 1189SOL     OW 3626   1.281   4.506   0.758  0.4013 -0.4041 -0.3204
 1189SOL    HW1 3627   1.283   4.580   0.819 -0.0018 -1.4298  0.9928
 1189SOL    HW2 3628   1.359   4.455   0.780  0.7714 -0.2860 -1.3353
 1190SOL     OW 3629   2.241   1.470   1.635  0.3667  0.1692  0.1566
 1190SOL    HW1 3630   2.192   1.446   1.556  2.2522 -1.1534 -0.7005
 1190SOL    HW2 3631   2.231   1.395   1.694  2.7529 -0.9811 -0.7801
 1191SOL     OW 3632   2.578   0.042   1.611 -0.0641 -0.1468 -0.0591
 1191SOL    HW1 3633   2.612   0.066   1.525  2.2591  1.6781  1.2313
 1191SOL    HW2 3634   2.652  -0.000   1.655 -0.2267  1.4951  1.9683
 1192SOL     OW 3635   0.948   4.145   1.701  0.1031 -0.6620 -0.8144
 1192SOL    HW1 3636   1.014   4.214   1.695 -2.2787  1.7328 -1.5279
 1192SOL    HW2 3637   0.929   4.122   1.610 -1.2672  0.0093 -0.7275
 1193SOL     OW 3638   1.230   2.113   4.040  0.1976  0.2457 -0.7057
 1193SOL    HW1 3639   1.300   2.109   3.974  1.1281  0.2538  0.2403
 1193SOL    HW2 3640   1.150   2.127   3.990  1.1049  2.2347 -1.7372
 1194SOL     OW 3641   4.684   3.256   0.960  0.1039 -0.1116  0.3755
 1194SOL    HW1 3642   4.702   3.206   0.880 -0.9624 -0.7621  0.5212
 1194SOL    HW2 3643   4.678   3.189   1.028 -2.5615  0.0081  0.3801
 1195SOL     OW 3644   1.340   5.002   3.839 -0.1613  0.5387  0.2420
 1195SOL    HW1 3645   1.416   5.050   3.806  0.0286  0.8961  1.1644
 1195SOL    HW2 3646   1.377   4.936   3.898 -0.5876  1.1350  1.2028
 1196SOL     OW 3647   4.938   4.525   2.702 -0.3562 -0.0369  0.0245
 1196SOL    HW1 3648   4.993   4.465   2.651 -0.1878  0.0883  0.0594
 1196SOL    HW2 3649   4.851   4.484   2.702  0.4451 -2.0707  2.9192
 1197SOL     OW 3650   4.287   2.609   0.978  0.4068  0.3482  0.1399
 1197SOL    HW1 3651   4.358   2.619   1.041  1.2274 -1.3884 -0.4236
 1197SOL    HW2 3652   4.256   2.698   0.961  1.3267  0.9903  1.6543
 1198SOL     OW 3653   3.032   4.213   2.602  0.0384  0.1695 -0.0191
 1198SOL    HW1 3654   3.027   4.245   2.691  1.0861  0.3590 -0.0163
 1198SOL    HW2 3655   3.123   4.185   2.591 -0.6771 -2.3767 -0.1694
 1199SOL     OW 3656   3.323   4.983   0.729  0.2848  0.4799  0.7110
 1199SOL    HW1 3657   3.292   4.965   0.640  0.1885 -0.6767  0.9656
 1199SOL    HW2 3658   3.243   4.988   0.781  0.3382  1.2307  0.7258
 1200SOL     OW 3659   3.938   0.580   1.710 -0.1298  0.0064 -0.2425
 1200SOL    HW1 3660   3.947   0.491   1.675 -2.2706  0.0021 -0.9297
 1200SOL    HW2 3661   3.995   0.634   1.656 -1.3814 -0.4439 -2.0998
 1201SOL     OW 3662   4.054   4.424   0.618  0.0282 -0.8226 -0.2019
 1201SOL    HW1 3663   4.018   4.424   0.530  1.0106  0.5837 -0.6384
 1201SOL    HW2 3664   4.078   4.515   0.634  0.2632 -1.1248  1.3647
 1202SOL     OW 3665   3.490   5.031   1.673 -0.3760 -0.0651 -0.0617
 1202SOL    HW1 3666   3.571   4.987   1.697 -0.1191  0.1746 -0.4605
 1202SOL    HW2 3667   3.504   5.122   1.698  0.1988  0.3549 -1.7317
 1203SOL     OW 3668   2.834   5.010   3.417  0.1468  0.0384  0.0699
 1203SOL    HW1 3669   2.905   4.976   3.363 -0.7373  1.6050 -2.2443
 1203SOL    HW2 3670   2.878   5.068   3.479  1.0005  0.3579 -0.7945
 1204SOL     OW 3671   0.455   5.009   1.070 -0.0658  0.9680  0.7237
 1204SOL    HW1 3672   0.499   5.084   1.111 -0.5875  1.4322  0.4412
 1204SOL    HW2 3673   0.368   5.008   1.109  1.2754 -2.2619  4.2649
 1205SOL     OW 3674   0.715   3.841   3.432 -0.3507 -0.1018  0.3070
 1205SOL    HW1 3675   0.625   3.822   3.459 -0.1593 -0.9573  0.3955
 1205SOL    HW2 3676   0.712   3.841   3.337 -0.7833  1.6737  0.2919
 1206SOL     OW 3677   3.414   3.151   1.678  0.3166  0.1981  0.0049
 1206SOL    HW1 3678   3.354   3.150   1.753 -0.1989 -1.1209 -0.3902
 1206SOL    HW2 3679   3.467   3.230   1.691 -0.9753  0.9855  0.7797
 1207SOL     OW 3680   3.580   4.209   0.246  0.2168  0.3206  0.4399
 1207SOL    HW1 3681   3.599   4.207   0.340  0.7520 -0.0667  0.3255
 1207SOL    HW2 3682   3.665   4.195   0.204 -0.3561 -1.9319 -0.0731
 1208SOL     OW 3683   3.998   3.853   4.203 -0.7593 -0.1866  0.7707
 1208SOL    HW1 3684   3.917   3.834   4.251 -0.8152  0.0915  0.7880
 1208SOL    HW2 3685   4.006   3.948   4.206 -0.1183 -0.2500  1.2694
 1209SOL     OW 3686   4.616   3.964   3.619  0.0928 -0.4898 -0.0462
 1209SOL    HW1 3687   4.603   4.052   3.584  0.0373 -0.8361 -0.9082
 1209SOL    HW2 3688   4.640   3.979   3.711  1.6727  0.5015 -0.5639
 1210SOL     OW 3689   1.938   4.626   3.955 -1.0149 -0.0146  0.2524
 1210SOL    HW1 3690   1.911   4.673   3.876 -0.2119 -1.6238 -1.0544
 1210SOL    HW2 3691   1.965   4.695   4.016 -2.5923  1.3240 -0.4852
 1211SOL     OW 3692   4.475   2.713   1.776  0.1664  0.6690  0.0866
 1211SOL    HW1 3693   4.464   2.618   1.774  0.7256  0.5697  1.0891
 1211SOL    HW2 3694   4.399   2.747   1.729 -1.4539 -0.1846  1.9642
 1212SOL     OW 3695   2.894   3.645   2.414  0.0550  0.4510  0.2146
 1212SOL    HW1 3696   2.988   3.631   2.403 -0.2122 -0.3085 -1.2750
 1212SOL    HW2 3697   2.861   3.561   2.446 -0.4089  0.0528 -1.2707
 1213SOL     OW 3698   4.875   0.393   0.794  0.1020  0.5934 -0.2588
 1213SOL    HW1 3699   4.814   0.385   0.867 -0.3512  1.0775 -0.5767
 1213SOL    HW2 3700   4.890   0.487   0.786  0.8704  0.4868 -0.2093
 1214SOL     OW 3701   0.391   4.379   0.619  0.5501  0.0534  0.1418
 1214SOL    HW1 3702   0.369   4.293   0.586  0.4764  0.5493 -1.1422
 1214SOL    HW2 3703   0.307   4.423   0.632  0.6039  1.1803 -2.6941
 1215SOL     OW 3704   5.414   0.459   0.516  0.0536  0.4714 -0.1706
 1215SOL    HW1 3705   5.404   0.554   0.523  0.6058  0.4810  0.5046
 1215SOL    HW2 3706   5.328   0.425   0.542  0.0120  0.7631  0.0781
 1216SOL     OW 3707   3.784   0.961   2.767 -0.0085 -0.5953  0.1741
 1216SOL    HW1 3708   3.783   0.983   2.860  1.1067  0.6700 -0.0877
 1216SOL    HW2 3709   3.850   1.018   2.729 -0.3110 -1.2178 -1.3788
 1217SOL     OW 3710   1.148   3.010   0.194 -1.3156  0.3998 -0.0109
 1217SOL    HW1 3711   1.119   3.065   0.266 -1.1506  2.0605 -1.1507
 1217SOL    HW2 3712   1.232   2.973   0.223 -0.6682  1.9838  0.2021
 1218SOL     OW 3713   1.815   4.807   1.255  0.5432  0.1067  0.3358
 1218SOL    HW1 3714   1.729   4.822   1.216  1.5368  1.8261 -1.4139
 1218SOL    HW2 3715   1.865   4.763   1.186  1.0409 -1.0854  1.4121
 1219SOL     OW 3716   5.146   3.108   3.504  0.6585 -0.3598 -0.1038
 1219SOL    HW1 3717   5.232   3.139   3.531  0.3387 -0.0211  0.5481
 1219SOL    HW2 3718   5.119   3.168   3.434  1.8495 -1.7388 -1.8407
 1220SOL     OW 3719   0.603   0.779   0.989 -0.2091  0.4542 -0.0323
 1220SOL    HW1 3720   0.599   0.817   1.077 -1.3176 -0.9771  0.5930
 1220SOL    HW2 3721   0.516   0.793   0.953 -0.9669 -2.1132  0.5687
 1221SOL     OW 3722   3.245   0.390   1.583  0.6099  0.2709 -0.0254
 1221SOL    HW1 3723   3.255   0.439   1.502  0.2420  0.3063 -0.0503
 1221SOL    HW2 3724   3.151   0.377   1.592  0.6685  0.0262  0.2524
 1222SOL     OW 3725   1.623   0.551   1.999  0.3450 -0.3649 -0.0071
 1222SOL    HW1 3726   1.568   0.476   1.975  0.2269 -0.5441  0.8063
 1222SOL    HW2 3727   1.712   0.516   1.996  0.3993 -0.1743 -0.9495
 1223SOL     OW 3728   1.255   0.445   1.538  0.4969 -0.3355  0.5164
 1223SOL    HW1 3729   1.178   0.407   1.495  0.7121  0.4845 -0.6378
 1223SOL    HW2 3730   1.239   0.540   1.535  2.8122  0.0925 -2.3590
 1224SOL     OW 3731   3.754   4.784   2.991 -0.6347  0.0463 -0.2365
 1224SOL    HW1 3732   3.696   4.752   3.059 -1.0630  3.1006  0.9889
 1224SOL    HW2 3733   3.842   4.767   3.024 -0.8457 -0.0583  0.2691
 1225SOL     OW 3734   4.944   3.839   2.982  0.4506  0.2964 -0.0660
 1225SOL    HW1 3735   5.025   3.881   2.953  0.5983  0.3368  0.3904
 1225SOL    HW2 3736   4.888   3.912   3.010 -0.0516  0.3299 -1.1110
 1226SOL     OW 3737   1.656   1.137   4.078 -0.0063  0.2908 -0.1439
 1226SOL    HW1 3738   1.734   1.192   4.072  0.8479 -0.5132  2.5639
 1226SOL    HW2 3739   1.685   1.050   4.051  0.1145 -0.0391  0.9928
 1227SOL     OW 3740   4.248   4.666   1.126  0.3620  0.1084 -0.4415
 1227SOL    HW1 3741   4.253   4.653   1.221  0.3003  0.6981 -0.3526
 1227SOL    HW2 3742   4.210   4.585   1.093 -0.8898  0.4152  0.1865
 1228SOL     OW 3743   3.157   3.807   3.971 -0.3529 -0.0371 -0.1616
 1228SOL    HW1 3744   3.093   3.861   4.017 -1.7552  0.9376 -3.0370
 1228SOL    HW2 3745   3.242   3.847   3.992 -0.5939 -0.9077  3.1165
 1229SOL     OW 3746   1.631   5.114   2.677  0.1390 -0.1254 -0.7819
 1229SOL    HW1 3747   1.542   5.139   2.652 -0.2743 -0.3048  0.4576
 1229SOL    HW2 3748   1.674   5.093   2.594 -0.4964  1.4442 -1.5529
 1230SOL     OW 3749   0.818   0.577   1.516 -0.2745 -0.4949 -0.2067
 1230SOL    HW1 3750   0.861   0.660   1.535 -2.0766  0.1293  1.4519
 1230SOL    HW2 3751   0.803   0.578   1.422 -2.2849  2.1493  0.0217
 1231SOL     OW 3752   3.590   4.828   0.184  0.1197 -0.2463  0.3804
 1231SOL    HW1 3753   3.514   4.803   0.237  1.5961 -1.3005  2.0885
 1231SOL    HW2 3754   3.604   4.754   0.126  0.2314 -0.3371  0.5223
 1232SOL     OW 3755   3.320   3.697   1.147  0.4202  0.0870  0.0539
 1232SOL    HW1 3756   3.248   3.759   1.138  1.0221  0.7636 -0.2488
 1232SOL    HW2 3757   3.381   3.721   1.077  1.8378  0.7945  1.4562
 1233SOL     OW 3758   1.763   3.893   3.932 -0.1420  0.2822 -0.4015
 1233SOL    HW1 3759   1.707   3.967   3.907 -0.0059  1.5090  2.5091
 1233SOL    HW2 3760   1.838   3.898   3.872 -0.8245  1.6247 -1.1921
 1234SOL     OW 3761   0.165   3.980   0.356  0.4750  0.2556  0.0165
 1234SOL    HW1 3762   0.140   4.066   0.324 -0.0047  0.7888  1.6985
 1234SOL    HW2 3763   0.220   3.943   0.287 -0.4312  1.3299 -1.3349
 1235SOL     OW 3764   3.684   4.064   2.325  0.2003 -0.3739  0.5180
 1235SOL    HW1 3765   3.735   3.989   2.356  0.3738 -2.2360 -3.6215
 1235SOL    HW2 3766   3.722   4.084   2.239  0.6787  5.1198  1.6742
 1236SOL     OW 3767   4.017   4.379   3.876 -0.0728 -0.2654  0.2998
 1236SOL    HW1 3768   4.026   4.446   3.808 -2.7969 -1.5477 -1.4769
 1236SOL    HW2 3769   3.931   4.394   3.915 -0.3408 -2.1301  0.5174
 1237SOL     OW 3770   3.034   2.688   1.840 -0.3378  0.6707 -0.0646
 1237SOL    HW1 3771   3.089   2.733   1.904  1.2017 -1.4451  0.2194
 1237SOL    HW2 3772   3.009   2.606   1.883 -2.0646  0.6784 -0.9675
 1238SOL     OW 3773   3.841   1.196   4.163  0.3354 -0.0414 -0.0415
 1238SOL    HW1 3774   3.871   1.240   4.242  0.0679  0.4997 -0.2354
 1238SOL    HW2 3775   3.807   1.266   4.107  1.7149 -0.2365 -1.1956
 1239SOL     OW 3776   2.567   4.403   4.026 -0.3527  0.4802 -0.2235
 1239SOL    HW1 3777   2.546   4.468   4.093  1.5984 -0.8268  1.7944
 1239SOL    HW2 3778   2.506   4.331   4.043 -1.4439  1.0650 -1.4468
 1240SOL     OW 3779   1.294   3.673   4.220 -0.6377  0.5933 -0.2980
 1240SOL    HW1 3780   1.300   3.756   4.174 -1.4119  0.5778 -0.4531
 1240SOL    HW2 3781   1.344   3.686   4.301 -0.1635  0.9675 -0.6481
 1241SOL     OW 3782   3.211   5.026   1.880  0.1568 -0.1555 -0.5171
 1241SOL    HW1 3783   3.162   5.024   1.962 -0.0021  1.6412 -0.5417
 1241SOL    HW2 3784   3.297   4.990   1.903  0.3093  0.8688  0.5789
 1242SOL     OW 3785   3.509   1.124   0.299  0.3112  0.0567  0.2947
 1242SOL    HW1 3786   3.452   1.051   0.275  0.4527  0.5829 -1.9151
 1242SOL    HW2 3787   3.597   1.095   0.275  0.4748  0.6197  0.1757
 1243SOL     OW 3788   3.748   2.595   1.317  0.6564 -0.3597 -0.2998
 1243SOL    HW1 3789   3.744   2.522   1.379  1.4173  0.0392  0.2387
 1243SOL    HW2 3790   3.826   2.578   1.264  0.7828  0.0052 -0.2365
 1244SOL     OW 3791   1.159   3.699   1.950 -0.4227 -0.0825  0.3871
 1244SOL    HW1 3792   1.175   3.750   2.030 -1.6496  1.3959 -0.2712
 1244SOL    HW2 3793   1.128   3.763   1.887  1.9558 -0.9270 -1.7961
 1245SOL     OW 3794   3.963   2.714   2.777  0.0318  0.1431  0.3057
 1245SOL    HW1 3795   4.048   2.675   2.756 -1.4441 -3.8912  0.9121
 1245SOL    HW2 3796   3.969   2.734   2.871  0.6189  0.8871  0.1203
 1246SOL     OW 3797   1.353   2.936   4.299  0.0878  0.2001 -0.3338
 1246SOL    HW1 3798   1.261   2.957   4.315  0.2493  1.4944 -0.9527
 1246SOL    HW2 3799   1.391   2.926   4.386  0.0674  3.0329  0.1083
 1247SOL     OW 3800   3.483   2.105   1.949 -0.1224 -0.0522 -0.0090
 1247SOL    HW1 3801   3.430   2.183   1.933 -1.0351 -0.3546  1.3186
 1247SOL    HW2 3802   3.529   2.123   2.031 -0.5739 -1.0115  0.4713
 1248SOL     OW 3803   1.726   0.121   2.979  0.3706 -0.6619 -0.4251
 1248SOL    HW1 3804   1.792   0.188   2.961 -0.9415  1.6789  2.5775
 1248SOL    HW2 3805   1.645   0.155   2.940  0.0224 -1.3028 -0.2834
 1249SOL     OW 3806   2.622   0.696   3.139  0.4714 -0.3303  0.1467
 1249SOL    HW1 3807   2.548   0.724   3.192 -0.0626 -2.6296  0.7352
 1249SOL    HW2 3808   2.592   0.616   3.095  1.7863  0.0431 -1.5608
 1250SOL     OW 3809   4.994   2.986   0.902 -0.7520  0.5080 -0.2832
 1250SOL    HW1 3810   5.079   2.969   0.941  0.2300 -0.0280 -2.4900
 1250SOL    HW2 3811   4.935   2.923   0.943 -0.2635  1.3084  1.7285
 1251SOL     OW 3812   3.431   3.548   4.203  0.2963 -0.4390 -0.1768
 1251SOL    HW1 3813   3.357   3.516   4.151  0.4776 -0.0765 -0.6603
 1251SOL    HW2 3814   3.507   3.502   4.169  0.4722  0.0724 -0.4913
 1252SOL     OW 3815   3.553   1.038   3.360 -0.3483  0.5023 -0.0160
 1252SOL    HW1 3816   3.624   1.086   3.319  1.1696 -0.2950  1.5414
 1252SOL    HW2 3817   3.597   0.977   3.420 -2.2114 -1.8190 -0.8347
 1253SOL     OW 3818   1.131   4.637   0.538  0.1617  0.0847 -0.0256
 1253SOL    HW1 3819   1.176   4.598   0.613  2.2469  0.2215 -1.1348
 1253SOL    HW2 3820   1.093   4.564   0.491  0.0550 -0.1359  0.3987
 1254SOL     OW 3821   1.148   0.335   0.025 -0.5814  0.8072 -0.1057
 1254SOL    HW1 3822   1.085   0.275  -0.015 -0.6245  0.3605  0.6254
 1254SOL    HW2 3823   1.111   0.422   0.009 -1.7306  0.5258  0.8713
 1255SOL     OW 3824   1.989   0.693   3.528 -0.2808  0.3960  0.4313
 1255SOL    HW1 3825   1.988   0.763   3.462  0.2974  0.2701  0.2840
 1255SOL    HW2 3826   2.077   0.695   3.564  0.2999 -1.3645 -0.7621
 1256SOL     OW 3827   4.696   1.992   0.867 -0.2360 -0.0373  0.0431
 1256SOL    HW1 3828   4.706   1.897   0.861 -1.4074 -0.1626 -0.1168
 1256SOL    HW2 3829   4.632   2.014   0.799  1.0801  1.0553 -0.8990
 1257SOL     OW 3830   2.987   2.854   2.309 -1.0550  0.0127 -0.2902
 1257SOL    HW1 3831   3.011   2.774   2.262 -0.2298  0.7252 -1.1305
 1257SOL    HW2 3832   3.069   2.904   2.315 -1.3781  0.4400  0.9442
 1258SOL     OW 3833   3.860   1.086   2.343 -0.2582  0.0232 -1.0466
 1258SOL    HW1 3834   3.910   1.011   2.374  0.5578  0.1148 -2.1010
 1258SOL    HW2 3835   3.775   1.077   2.385  0.7835  0.1505  1.2377
 1259SOL     OW 3836   0.373   1.456   3.878  0.1881  0.5938 -0.4696
 1259SOL    HW1 3837   0.436   1.384   3.870 -2.3971 -2.1389  1.7918
 1259SOL    HW2 3838   0.388   1.492   3.965 -1.5084 -0.3215  0.2384
 1260SOL     OW 3839   3.560   1.866   2.810 -0.1532  0.5762  0.4384
 1260SOL    HW1 3840   3.555   1.911   2.726 -0.4723  2.3511  1.3459
 1260SOL    HW2 3841   3.532   1.932   2.874  2.3228  0.0835  2.1925
 1261SOL     OW 3842   4.794   1.947   3.047  0.1028 -0.0630 -0.1834
 1261SOL    HW1 3843   4.781   1.879   2.981 -1.1492  1.3584 -1.4712
 1261SOL    HW2 3844   4.884   1.977   3.033  0.0932 -0.2788 -0.7539
 1262SOL     OW 3845   3.337   1.746   3.835  0.1071 -0.1720  0.1028
 1262SOL    HW1 3846   3.411   1.807   3.838  1.4104 -1.7242  1.2105
 1262SOL    HW2 3847   3.376   1.660   3.848 -1.8864 -1.0751  0.5145
 1263SOL     OW 3848   2.246   0.566   3.790 -0.4087 -0.7762 -0.2392
 1263SOL    HW1 3849   2.252   0.481   3.747  2.0145  0.1868 -2.0683
 1263SOL    HW2 3850   2.245   0.629   3.718  0.5864  0.8102  1.0492
 1264SOL     OW 3851   2.182   0.004   2.759 -0.1816  0.0686  0.3107
 1264SOL    HW1 3852   2.199   0.093   2.729  0.5662  0.2816  1.2959
 1264SOL    HW2 3853   2.102   0.011   2.811  0.0177  0.2178  0.5997
 1265SOL     OW 3854   4.976   3.073   1.265 -0.1221 -0.2360 -0.2846
 1265SOL    HW1 3855   4.917   3.126   1.318 -0.4307  0.5480 -1.3850
 1265SOL    HW2 3856   5.055   3.126   1.255 -0.2304 -0.1917 -0.9610
 1266SOL     OW 3857   2.314   3.526   0.656 -0.1447  0.1093  0.0881
 1266SOL    HW1 3858   2.221   3.548   0.647 -0.2079 -0.2292 -0.0848
 1266SOL    HW2 3859   2.318   3.432   0.639  0.3989  0.3478 -1.2875
 1267SOL     OW 3860   0.422   0.204   1.518 -0.5546  0.0770 -0.0098
 1267SOL    HW1 3861   0.511   0.241   1.515 -0.6485  0.2481 -1.4610
 1267SOL    HW2 3862   0.404   0.179   1.427 -1.5622 -1.0067  0.4710
 1268SOL     OW 3863   4.204   0.291   0.179 -0.6077  0.0803  0.5818
 1268SOL    HW1 3864   4.253   0.316   0.258 -0.1876 -0.7893  0.6070
 1268SOL    HW2 3865   4.271   0.254   0.121 -0.5948  2.2065 -0.8777
 1269SOL     OW 3866   1.994   3.504   2.288 -0.0836  0.0605  0.3501
 1269SOL    HW1 3867   2.036   3.537   2.368  1.1281 -1.4173  0.3561
 1269SOL    HW2 3868   2.032   3.418   2.274 -2.3583 -0.9316 -0.2565
 1270SOL     OW 3869   2.735   1.102   4.194 -0.1224  0.3821 -0.2935
 1270SOL    HW1 3870   2.684   1.092   4.113  0.9588 -0.8873 -0.8612
 1270SOL    HW2 3871   2.724   1.194   4.218 -1.8345  0.3840 -0.9409
 1271SOL     OW 3872   3.416   0.407   2.052  0.3559 -0.1754 -0.2626
 1271SOL    HW1 3873   3.453   0.395   1.964 -0.0526  0.0529 -0.4729
 1271SOL    HW2 3874   3.415   0.502   2.065 -1.6565 -0.0527 -0.9461
 1272SOL     OW 3875   4.310   3.138   4.182 -0.4575  0.0625 -0.7121
 1272SOL    HW1 3876   4.383   3.085   4.213 -0.4674  0.8454  0.7416
 1272SOL    HW2 3877   4.316   3.219   4.232  0.4385  2.1594 -3.9140
 1273SOL     OW 3878   3.012   3.999   0.708  0.4987 -0.6374 -1.0473
 1273SOL    HW1 3879   3.054   3.925   0.752  0.5815  0.7192  1.3334
 1273SOL    HW2 3880   3.084   4.059   0.689  0.3511 -0.8592 -2.3923
 1274SOL     OW 3881   0.120   4.443   0.705  0.0443  0.5815  0.1910
 1274SOL    HW1 3882   0.105   4.382   0.777  0.7337 -0.2046 -0.3098
 1274SOL    HW2 3883   0.058   4.514   0.720  0.9873  1.0209  2.1942
 1275SOL     OW 3884   4.122   4.399   4.318  0.3268 -0.1691 -0.0085
 1275SOL    HW1 3885   4.081   4.423   4.401 -1.1528 -0.0897 -0.7298
 1275SOL    HW2 3886   4.180   4.473   4.297 -0.6954  0.6718  0.0604
 1276SOL     OW 3887   2.509   0.493   0.528 -0.0736 -0.2310  0.0279
 1276SOL    HW1 3888   2.512   0.521   0.620 -1.4288 -0.6686  0.2157
 1276SOL    HW2 3889   2.550   0.565   0.480  0.4130  0.1183  0.9433
 1277SOL     OW 3890   4.374   0.318   0.977  0.6050  0.7552 -0.4834
 1277SOL    HW1 3891   4.338   0.374   0.909 -0.8268 -0.6116 -0.9153
 1277SOL    HW2 3892   4.332   0.348   1.058 -1.4743 -0.6902 -0.9528
 1278SOL     OW 3893   2.302   1.532   3.669  0.1154  0.3899  0.4504
 1278SOL    HW1 3894   2.326   1.513   3.578 -1.3930  0.6653 -0.0431
 1278SOL    HW2 3895   2.222   1.481   3.684 -1.2033  2.3807  0.7068
 1279SOL     OW 3896   3.461   1.187   3.592  0.0603  0.1742 -0.2218
 1279SOL    HW1 3897   3.494   1.142   3.514  1.4144  0.2069  0.3008
 1279SOL    HW2 3898   3.373   1.216   3.568 -1.0497 -2.9547 -0.5221
 1280SOL     OW 3899   1.840   4.788   3.749  0.3441 -0.1550 -0.6843
 1280SOL    HW1 3900   1.766   4.820   3.697  0.6010  0.2326 -0.8162
 1280SOL    HW2 3901   1.917   4.811   3.698  0.5207 -1.5836 -1.1118
 1281SOL     OW 3902   1.155   0.810   3.380  0.2421 -0.1836  0.0324
 1281SOL    HW1 3903   1.104   0.729   3.383  0.2402 -0.1634  1.1818
 1281SOL    HW2 3904   1.105   0.871   3.435  0.4454  0.4823 -0.5073
 1282SOL     OW 3905   0.670   2.674   0.317  0.1607  0.3001  0.0325
 1282SOL    HW1 3906   0.729   2.600   0.305 -0.2947 -0.2382  0.9633
 1282SOL    HW2 3907   0.713   2.747   0.274  0.3657 -0.6205 -1.4003
 1283SOL     OW 3908   3.897   3.608   2.961 -0.0164  0.2268 -0.2244
 1283SOL    HW1 3909   3.891   3.582   2.869 -0.0403 -2.0379  0.3664
 1283SOL    HW2 3910   3.975   3.664   2.964  1.6197 -1.8448 -1.2092
 1284SOL     OW 3911   3.403   0.660   2.122 -0.1210  0.5209  0.2960
 1284SOL    HW1 3912   3.393   0.720   2.049 -0.3066  0.5306  0.3303
 1284SOL    HW2 3913   3.320   0.665   2.170 -0.1626  0.1885  0.2613
 1285SOL     OW 3914   4.063   0.812   1.143  0.5515  0.6316 -0.0509
 1285SOL    HW1 3915   4.057   0.829   1.237 -0.0329  1.7145 -0.2702
 1285SOL    HW2 3916   4.043   0.896   1.102 -2.4474 -0.5158 -1.2154
 1286SOL     OW 3917   2.766   2.238   2.460 -1.0206 -0.3186  0.4984
 1286SOL    HW1 3918   2.702   2.169   2.442 -1.6841  0.1577  0.9845
 1286SOL    HW2 3919   2.736   2.277   2.542  0.3117 -0.5683  1.1341
 1287SOL     OW 3920   4.436   4.662   0.521  0.2474  0.0423  0.2067
 1287SOL    HW1 3921   4.460   4.612   0.443  1.6620  0.8518  0.1018
 1287SOL    HW2 3922   4.341   4.650   0.529  0.2348 -0.8520 -1.0571
 1288SOL     OW 3923   3.868   3.985   1.051  0.2806 -0.0367 -0.2641
 1288SOL    HW1 3924   3.932   3.976   1.121 -1.2718  0.7805  1.3079
 1288SOL    HW2 3925   3.871   4.077   1.027 -0.5525  0.0831  0.0732
 1289SOL     OW 3926   0.705   0.529   2.896  0.2960 -0.6698 -0.0705
 1289SOL    HW1 3927   0.684   0.611   2.940 -0.6192 -1.6820  1.5020
 1289SOL    HW2 3928   0.788   0.546   2.852  0.4337  0.9046  0.7181
 1290SOL     OW 3929   1.619   2.218   1.524  0.2050 -0.3245  0.3548
 1290SOL    HW1 3930   1.667   2.142   1.490  0.2103  0.5083 -1.6258
 1290SOL    HW2 3931   1.687   2.276   1.558  0.4678 -0.0274 -0.6335
 1291SOL     OW 3932   2.313   5.005   2.431 -0.2522  0.0363  0.0953
 1291SOL    HW1 3933   2.285   5.021   2.521  1.8436  1.1105  0.6132
 1291SOL    HW2 3934   2.245   5.045   2.377 -0.5552  1.1047  1.2306
 1292SOL     OW 3935   4.541   0.386   3.860 -0.0041  0.7414  0.5150
 1292SOL    HW1 3936   4.454   0.361   3.828  0.4836  2.8069 -3.0394
 1292SOL    HW2 3937   4.528   0.471   3.902  0.3534  1.6014 -1.0285
 1293SOL     OW 3938   2.915   0.639   1.492 -0.8180 -0.1940  0.2378
 1293SOL    HW1 3939   2.966   0.630   1.412 -0.2008 -1.6364  0.7514
 1293SOL    HW2 3940   2.838   0.690   1.467 -0.8635 -1.0084 -1.3724
 1294SOL     OW 3941   0.500   1.769   3.504  0.3105 -0.4036 -0.3235
 1294SOL    HW1 3942   0.583   1.782   3.457  2.2153 -0.7685  2.6881
 1294SOL    HW2 3943   0.505   1.680   3.539 -0.4440  0.2333  1.5290
 1295SOL     OW 3944   3.299   2.813   2.542  0.9918 -0.0311  0.3300
 1295SOL    HW1 3945   3.344   2.839   2.461  1.9032 -2.3222  0.0263
 1295SOL    HW2 3946   3.210   2.847   2.531  1.4437  0.7965 -1.0640
 1296SOL     OW 3947   3.409   1.708   1.184  0.7426  0.0331 -0.7234
 1296SOL    HW1 3948   3.404   1.767   1.109 -1.1236 -2.1497 -2.4879
 1296SOL    HW2 3949   3.318   1.681   1.199  1.3243 -1.1254  1.0520
 1297SOL     OW 3950   0.684   3.787   1.048 -0.7501  0.0877  0.0342
 1297SOL    HW1 3951   0.779   3.780   1.054 -0.8877 -2.3777  0.7306
 1297SOL    HW2 3952   0.664   3.769   0.956 -0.6019 -1.0685  0.2160
 1298SOL     OW 3953   1.858   4.253   3.472  0.0761  0.0380 -0.1540
 1298SOL    HW1 3954   1.796   4.204   3.418 -0.8204  1.3976 -0.3916
 1298SOL    HW2 3955   1.847   4.216   3.560  1.0120 -1.6731 -0.7046
 1299SOL     OW 3956   3.208   0.334   4.287 -0.4924 -0.1750 -0.1520
 1299SOL    HW1 3957   3.137   0.273   4.307  0.8538 -2.2279 -1.2701
 1299SOL    HW2 3958   3.246   0.356   4.372  0.6624 -3.0785  0.1846
 1300SOL     OW 3959   1.866   2.966   0.636  0.0822 -0.0571 -0.5225
 1300SOL    HW1 3960   1.919   3.017   0.697  0.4752  2.1708 -2.5655
 1300SOL    HW2 3961   1.787   2.943   0.686  0.7178  1.0050  1.0429
 1301SOL     OW 3962   4.720   4.024   0.010 -0.1692  0.5565 -0.1915
 1301SOL    HW1 3963   4.629   4.032   0.036 -0.4674  1.7209 -1.4853
 1301SOL    HW2 3964   4.717   3.989  -0.079  0.7984 -2.6594  0.9006
 1302SOL     OW 3965   0.674   5.067   1.292  0.6881  0.1863  0.1329
 1302SOL    HW1 3966   0.659   5.161   1.282  1.1927  0.1272 -1.5084
 1302SOL    HW2 3967   0.738   5.060   1.363  0.0915  1.0296  0.7663
 1303SOL     OW 3968   4.581   1.304   1.333  0.4471 -0.0771 -1.0186
 1303SOL    HW1 3969   4.594   1.225   1.279  0.0474  0.5584 -2.0783
 1303SOL    HW2 3970   4.506   1.283   1.389  2.3418 -1.6666  1.1141
 1304SOL     OW 3971   4.823   4.318   3.900 -0.0217  0.4294  0.3253
 1304SOL    HW1 3972   4.913   4.340   3.922  0.2346  0.2130 -0.4846
 1304SOL    HW2 3973   4.827   4.283   3.811 -0.8796  0.2528  0.3419
 1305SOL     OW 3974   1.414   1.671   0.647 -0.5770 -0.5078  0.4495
 1305SOL    HW1 3975   1.458   1.588   0.631 -0.6580 -0.7833  1.5789
 1305SOL    HW2 3976   1.473   1.718   0.706  0.2605  0.9355 -1.4173
 1306SOL     OW 3977   2.662   1.118   2.931 -0.2910  0.3229 -0.0547
 1306SOL    HW1 3978   2.581   1.159   2.900  0.5101  1.8367 -0.2631
 1306SOL    HW2 3979   2.689   1.061   2.859  0.0200  1.5830 -0.9749
 1307SOL     OW 3980   4.587   0.301   3.252 -0.3851  0.1328  0.1370
 1307SOL    HW1 3981   4.631   0.383   3.231  0.0989  0.0098  0.6463
 1307SOL    HW2 3982   4.494   0.322   3.247 -0.2933  0.2996 -1.3366
 1308SOL     OW 3983   4.669   1.096   2.643 -0.2727  0.6309  0.0273
 1308SOL    HW1 3984   4.579   1.083   2.672 -0.3612  0.3563 -0.3530
 1308SOL    HW2 3985   4.661   1.125   2.552  0.0033  1.2866  0.2034
 1309SOL     OW 3986   0.146   0.467   3.811 -0.5674  0.2565  0.1118
 1309SOL    HW1 3987   0.063   0.429   3.782 -0.8146  0.2992  0.7478
 1309SOL    HW2 3988   0.124   0.515   3.891 -0.2138  1.5432 -0.5420
 1310SOL     OW 3989   5.185   1.074   3.703  0.2175 -0.1706  0.4089
 1310SOL    HW1 3990   5.189   1.141   3.770 -0.2169  0.4280 -0.1545
 1310SOL    HW2 3991   5.228   1.113   3.626 -1.1193 -0.0451 -0.3111
 1311SOL     OW 3992   2.491   1.663   2.329 -0.0158  0.5219  0.3209
 1311SOL    HW1 3993   2.583   1.678   2.306 -0.1305  0.9259  0.1225
 1311SOL    HW2 3994   2.452   1.750   2.331 -0.2086  0.4232  1.2232
 1312SOL     OW 3995   3.839   2.974   4.308  0.2349  0.4799 -0.0474
 1312SOL    HW1 3996   3.801   2.893   4.274  0.0517  0.5530 -0.0192
 1312SOL    HW2 3997   3.934   2.961   4.300  0.2334 -0.0788  0.7424
 1313SOL     OW 3998   3.174   3.037   2.217  0.1328 -0.1818 -0.4569
 1313SOL    HW1 3999   3.270   3.038   2.211  0.1062  0.2464 -0.9592
 1313SOL    HW2 4000   3.152   3.124   2.251 -0.0291 -0.6390  0.6232
 1314SOL     OW 4001   3.452   2.693   3.878 -0.5511 -0.0406 -0.5710
 1314SOL    HW1 4002   3.477   2.664   3.966  0.5891 -0.3666 -0.9805
 1314SOL    HW2 4003   3.526   2.748   3.850 -0.6018 -0.4677 -1.5651
 1315SOL     OW 4004   3.192   2.859   2.014 -0.0792 -0.5235 -0.3769
 1315SOL    HW1 4005   3.139   2.894   2.086 -0.5622  0.1084 -1.0259
 1315SOL    HW2 4006   3.256   2.928   1.996  0.6976 -1.0998  0.1084
 1316SOL     OW 4007   4.750   0.261   2.535 -0.6542  0.0928  0.2478
 1316SOL    HW1 4008   4.787   0.183   2.576 -0.2552  0.4280  0.5451
 1316SOL    HW2 4009   4.750   0.241   2.441 -2.2711 -0.9685  0.4414
 1317SOL     OW 4010   4.593   4.438   2.663  0.1143 -0.2677  0.9068
 1317SOL    HW1 4011   4.509   4.472   2.694  0.1526 -0.5458  1.3274
 1317SOL    HW2 4012   4.598   4.466   2.572 -0.0392  0.5037  1.1304
 1318SOL     OW 4013   2.501   0.038   4.303  0.1351 -0.0525 -0.6829
 1318SOL    HW1 4014   2.445   0.053   4.226  0.4196  2.2353 -0.5032
 1318SOL    HW2 4015   2.440   0.019   4.374 -0.2932  0.2285 -0.9703
 1319SOL     OW 4016   5.140   1.860   2.354 -0.3024  0.1426 -0.7062
 1319SOL    HW1 4017   5.100   1.911   2.425  2.2427  1.3455 -0.0225
 1319SOL    HW2 4018   5.139   1.770   2.386  1.5965  0.7640  1.3513
 1320SOL     OW 4019   2.948   3.417   1.398  0.0177  0.5064 -0.5268
 1320SOL    HW1 4020   2.854   3.426   1.387  0.0133  1.4864  0.2219
 1320SOL    HW2 4021   2.981   3.507   1.400  1.0278  0.1657 -1.2751
 1321SOL     OW 4022   5.266   0.747   0.870  0.2777  0.3551 -0.3612
 1321SOL    HW1 4023   5.211   0.771   0.795  0.7981 -1.8687 -1.5329
 1321SOL    HW2 4024   5.212   0.687   0.922  1.0419 -0.6848 -0.7400
 1322SOL     OW 4025   0.615   2.193   2.014  0.3607 -0.1456 -0.7352
 1322SOL    HW1 4026   0.599   2.101   2.038  0.5246  0.0292  0.0566
 1322SOL    HW2 4027   0.677   2.225   2.079 -0.1891  0.7136 -0.6092
 1323SOL     OW 4028   5.217   2.084   2.055  0.1916 -0.1178  0.0360
 1323SOL    HW1 4029   5.177   2.094   2.142  0.8537  1.4081  0.1964
 1323SOL    HW2 4030   5.196   1.994   2.030  0.1430 -0.6581  1.8483
 1324SOL     OW 4031   3.740   2.458   4.210  0.2173 -0.4188 -0.4064
 1324SOL    HW1 4032   3.803   2.484   4.277 -1.2094 -0.8572  1.1831
 1324SOL    HW2 4033   3.785   2.473   4.127  1.3111  2.1603  0.5596
 1325SOL     OW 4034   2.887   1.144   0.028  0.2235  0.2995  0.4009
 1325SOL    HW1 4035   2.829   1.217   0.046  0.6984  0.2961  2.1224
 1325SOL    HW2 4036   2.963   1.183  -0.015 -0.8054  0.3639 -1.4345
 1326SOL     OW 4037   1.182   3.773   3.810 -0.0233 -0.1200  0.0491
 1326SOL    HW1 4038   1.195   3.863   3.779  0.7248  0.2690  1.4482
 1326SOL    HW2 4039   1.266   3.730   3.795  0.9318  0.5452  2.9948
 1327SOL     OW 4040   3.224   1.296   3.509 -0.1813  0.2361  0.1008
 1327SOL    HW1 4041   3.208   1.327   3.420  0.1587 -1.0571 -0.4292
 1327SOL    HW2 4042   3.140   1.260   3.537  0.4073 -2.0769 -0.8529
 1328SOL     OW 4043   0.750   4.706   0.238 -0.4111 -0.3693  0.5991
 1328SOL    HW1 4044   0.669   4.717   0.189 -1.0497  0.5743  1.7951
 1328SOL    HW2 4045   0.731   4.744   0.324  1.2064 -0.4077  1.0079
 1329SOL     OW 4046   3.612   1.532   0.760 -0.9338  0.3071 -0.3460
 1329SOL    HW1 4047   3.548   1.592   0.799  0.4411  1.1533  0.7042
 1329SOL    HW2 4048   3.686   1.587   0.736 -0.0794 -0.8142 -0.3874
 1330SOL     OW 4049   2.529   2.440   2.938 -0.4422 -0.1198 -0.2233
 1330SOL    HW1 4050   2.604   2.492   2.908  0.9120 -1.6384  0.3943
 1330SOL    HW2 4051   2.538   2.438   3.034 -2.0607  0.7746 -0.0094
 1331SOL     OW 4052   4.360   4.298   0.175 -0.4586  0.2493 -0.3347
 1331SOL    HW1 4053   4.311   4.301   0.093  0.8268  1.0106 -1.1196
 1331SOL    HW2 4054   4.359   4.389   0.206  1.5325  0.5886 -1.0899
 1332SOL     OW 4055   3.602   4.600   0.999 -0.3461  0.3336 -0.0785
 1332SOL    HW1 4056   3.571   4.530   1.056 -1.5807  0.8235 -0.1087
 1332SOL    HW2 4057   3.594   4.679   1.052 -0.6031  0.6666 -0.6049
 1333SOL     OW 4058   3.348   1.305   0.829  0.1890  0.1096  0.6860
 1333SOL    HW1 4059   3.335   1.399   0.843  0.5802  0.4858 -1.2754
 1333SOL    HW2 4060   3.271   1.276   0.780  0.2251 -0.5313  0.9966
 1334SOL     OW 4061   0.890   5.120   2.879 -1.0598 -0.3437  0.2012
 1334SOL    HW1 4062   0.890   5.198   2.823 -1.1946 -1.6755 -1.7541
 1334SOL    HW2 4063   0.903   5.154   2.967  0.1239  1.8024 -0.7144
 1335SOL     OW 4064   0.212   1.427   1.511 -0.0938  0.3361  0.4379
 1335SOL    HW1 4065   0.205   1.512   1.553 -0.7776 -0.0039  1.0489
 1335SOL    HW2 4066   0.163   1.368   1.569  0.4010 -0.4762  0.0496
 1336SOL     OW 4067   4.362   0.096   3.351 -0.0649 -0.2046  0.6802
 1336SOL    HW1 4068   4.301   0.121   3.421  0.6361 -1.3998  1.7551
 1336SOL    HW2 4069   4.348   0.162   3.283 -1.0647  0.7527  1.7636
 1337SOL     OW 4070   3.593   0.166   1.439  0.2046 -0.5679  0.0946
 1337SOL    HW1 4071   3.518   0.125   1.482 -0.3055 -1.6537 -1.7440
 1337SOL    HW2 4072   3.634   0.096   1.389  0.1323  0.7950 -2.0393
 1338SOL     OW 4073   1.157   5.133   4.433  0.4641  0.3011  0.3441
 1338SOL    HW1 4074   1.192   5.223   4.434  0.5597  0.4729 -3.2073
 1338SOL    HW2 4075   1.085   5.137   4.370  0.1439 -2.0421  0.4924
 1339SOL     OW 4076   3.388   3.959   1.251 -0.0757  0.6339 -0.1317
 1339SOL    HW1 4077   3.406   3.988   1.161  3.4825 -0.1600  0.1738
 1339SOL    HW2 4078   3.418   3.869   1.254 -0.7874  0.4074  1.7154
 1340SOL     OW 4079   0.486   4.792   2.475  0.1010 -0.4506 -0.2725
 1340SOL    HW1 4080   0.537   4.865   2.442 -0.1360 -0.7863 -1.4232
 1340SOL    HW2 4081   0.510   4.786   2.568  0.2163  0.9920 -0.1817
 1341SOL     OW 4082   0.927   0.289   2.740  0.1326  0.1424 -0.1635
 1341SOL    HW1 4083   0.880   0.268   2.821  2.3792 -0.3335  1.0728
 1341SOL    HW2 4084   0.996   0.349   2.766  1.3186 -0.5316 -1.6031
 1342SOL     OW 4085   1.726   3.225   4.153  0.2337 -0.1152 -0.0687
 1342SOL    HW1 4086   1.634   3.200   4.157  0.5016 -1.0623  0.5329
 1342SOL    HW2 4087   1.742   3.243   4.061 -0.4500 -0.3641 -0.2412
 1343SOL     OW 4088   1.779   1.370   1.918 -0.3134  1.1420  0.7703
 1343SOL    HW1 4089   1.754   1.403   2.004  0.5916 -0.3803  1.6464
 1343SOL    HW2 4090   1.868   1.336   1.930 -0.1005  1.0756 -0.8111
 1344SOL     OW 4091   2.178   1.504   0.730  0.4389  0.2539 -0.0617
 1344SOL    HW1 4092   2.140   1.562   0.797  0.6984  1.5159 -0.9667
 1344SOL    HW2 4093   2.272   1.503   0.750  0.3347 -0.5292  0.4344
 1345SOL     OW 4094   3.535   2.058   0.741  0.0486  0.1740  0.6245
 1345SOL    HW1 4095   3.490   2.119   0.683  0.2319 -1.0694 -0.9030
 1345SOL    HW2 4096   3.628   2.082   0.733  0.2296 -0.8577 -0.7371
 1346SOL     OW 4097   0.564   1.693   3.815  0.0965  0.2908  0.1174
 1346SOL    HW1 4098   0.490   1.680   3.874 -0.4819  0.3587 -0.5656
 1346SOL    HW2 4099   0.538   1.768   3.761  1.8732  2.1318  1.6937
 1347SOL     OW 4100   2.050   4.784   4.166  0.7515 -0.5351 -0.6550
 1347SOL    HW1 4101   2.124   4.791   4.228  0.3982 -0.9815 -0.1714
 1347SOL    HW2 4102   2.084   4.819   4.084  0.9857  0.8175 -0.0038
 1348SOL     OW 4103   4.362   3.167   3.607 -0.1644 -0.3860 -0.3637
 1348SOL    HW1 4104   4.416   3.225   3.554 -1.7194  1.5883  0.0625
 1348SOL    HW2 4105   4.330   3.223   3.678 -3.0493 -1.2625 -0.8239
 1349SOL     OW 4106   5.425   1.085   1.131 -0.1281  0.9743 -0.5884
 1349SOL    HW1 4107   5.402   1.178   1.122 -0.2269  0.9186 -0.9304
 1349SOL    HW2 4108   5.342   1.038   1.123  0.1320  0.7424 -2.3364
 1350SOL     OW 4109   2.014   4.005   1.858 -1.0067  0.0982  0.1319
 1350SOL    HW1 4110   2.038   3.991   1.949 -1.0529 -3.5433 -0.2543
 1350SOL    HW2 4111   1.933   4.056   1.862 -1.5240 -0.7603  2.2186
 1351SOL     OW 4112   2.637   4.234   3.097 -0.0984 -0.2417 -0.0737
 1351SOL    HW1 4113   2.641   4.152   3.146  1.0658 -0.6098 -0.7464
 1351SOL    HW2 4114   2.628   4.302   3.165  0.5836 -0.8014  0.5950
 1352SOL     OW 4115   0.751   0.711   0.388 -0.0341  0.0134  0.2757
 1352SOL    HW1 4116   0.792   0.689   0.472 -2.3392  1.6578  1.9568
 1352SOL    HW2 4117   0.814   0.770   0.345  1.3460 -1.1607  0.6072
 1353SOL     OW 4118   4.239   4.113   0.935  0.1768  0.3465 -0.0364
 1353SOL    HW1 4119   4.242   4.147   1.025  0.3576 -1.1519  0.5609
 1353SOL    HW2 4120   4.331   4.100   0.911  0.1004 -1.0844  0.3296
 1354SOL     OW 4121   2.898   0.773   3.094  0.4007  0.5809  0.0942
 1354SOL    HW1 4122   2.892   0.867   3.112 -1.6526  1.1451 -2.8438
 1354SOL    HW2 4123   2.809   0.741   3.105  0.8900 -0.8374  0.0908
 1355SOL     OW 4124   0.836   2.867   1.066 -0.1470 -0.7749 -0.2684
 1355SOL    HW1 4125   0.885   2.940   1.029  0.0329 -0.3574  0.7511
 1355SOL    HW2 4126   0.904   2.806   1.096 -0.2906 -1.1077 -0.6093
 1356SOL     OW 4127   2.006   1.648   4.346 -0.2185  0.1481 -1.2583
 1356SOL    HW1 4128   1.937   1.642   4.280 -0.3334  0.4839 -1.1696
 1356SOL    HW2 4129   2.001   1.566   4.395 -1.0990  0.5236 -0.7046
 1357SOL     OW 4130   5.142   1.668   3.815  0.2458  0.1788  0.0079
 1357SOL    HW1 4131   5.062   1.662   3.868  0.1680 -1.6025 -0.2578
 1357SOL    HW2 4132   5.119   1.628   3.731  1.3664 -0.2072 -0.1335
 1358SOL     OW 4133   1.509   4.514   3.193  0.5528 -0.4024 -0.3383
 1358SOL    HW1 4134   1.585   4.505   3.136  0.3923 -0.0405 -0.6184
 1358SOL    HW2 4135   1.543   4.550   3.275  0.5996  0.3945 -0.6949
 1359SOL     OW 4136   1.767   4.472   2.362 -0.4189  0.0370  0.3598
 1359SOL    HW1 4137   1.848   4.462   2.312 -0.4270  1.8446 -0.1103
 1359SOL    HW2 4138   1.741   4.563   2.346 -1.4748  0.0869  2.1041
 1360SOL     OW 4139   2.570   2.455   3.200 -0.4105  0.8910  0.2314
 1360SOL    HW1 4140   2.612   2.392   3.259  1.0891  3.1040  1.7089
 1360SOL    HW2 4141   2.522   2.513   3.259 -2.8260  0.4654 -1.1851
 1361SOL     OW 4142   5.374   4.721   1.684 -0.9301 -0.0510 -0.0494
 1361SOL    HW1 4143   5.396   4.661   1.755 -1.0205 -0.1187 -0.0778
 1361SOL    HW2 4144   5.365   4.806   1.726 -1.3190 -0.1516  0.0756
 1362SOL     OW 4145   2.442   4.536   3.020  0.1057  0.3304  0.7077
 1362SOL    HW1 4146   2.438   4.486   3.102 -0.0569  0.3157  0.6894
 1362SOL    HW2 4147   2.505   4.488   2.966 -0.9203 -0.5033  0.2403
 1363SOL     OW 4148   5.311   2.091   1.592  0.3764 -1.0815  0.2754
 1363SOL    HW1 4149   5.268   2.152   1.651  0.1511 -1.4835  0.5272
 1363SOL    HW2 4150   5.312   2.136   1.507 -1.2465 -1.3854  0.0804
 1364SOL     OW 4151   0.259   1.222   0.485 -0.2319  0.0818 -0.4463
 1364SOL    HW1 4152   0.310   1.286   0.435  2.4638 -2.6882 -1.6044
 1364SOL    HW2 4153   0.324   1.163   0.523 -2.5038 -2.5526 -0.2698
 1365SOL     OW 4154   2.706   0.808   1.431  0.3861 -0.2512 -0.8270
 1365SOL    HW1 4155   2.615   0.784   1.444 -0.1057  0.2957 -2.9820
 1365SOL    HW2 4156   2.719   0.884   1.488  0.1942 -1.6530  1.2041
 1366SOL     OW 4157   2.820   1.025   3.186 -0.0557  0.0721 -0.1382
 1366SOL    HW1 4158   2.771   1.052   3.108  1.8455 -0.3969 -1.5494
 1366SOL    HW2 4159   2.848   1.107   3.226 -0.4697  0.3074 -0.3221
 1367SOL     OW 4160   0.041   1.842   0.995 -0.1009 -0.7749 -0.0775
 1367SOL    HW1 4161   0.052   1.919   1.050 -0.8723 -1.4464  1.0791
 1367SOL    HW2 4162  -0.045   1.806   1.020  0.1052 -1.8419 -0.7899
 1368SOL     OW 4163   4.002   2.042   0.193  0.5714 -0.4595 -0.3668
 1368SOL    HW1 4164   4.021   2.129   0.159  1.0930  0.1138  1.2749
 1368SOL    HW2 4165   3.931   2.009   0.138  0.1858  1.1134 -0.8524
 1369SOL     OW 4166   0.968   2.795   3.950 -0.2600 -0.0468 -0.0982
 1369SOL    HW1 4167   0.938   2.870   4.002 -0.5532  0.4296 -0.9420
 1369SOL    HW2 4168   1.046   2.763   3.996 -0.0110  0.9070  0.1564
 1370SOL     OW 4169   2.181   0.206   1.862 -0.3958 -0.1558 -0.5715
 1370SOL    HW1 4170   2.226   0.290   1.857 -0.4714  0.0061  1.0247
 1370SOL    HW2 4171   2.248   0.144   1.890 -0.4709 -0.5395 -1.2060
 1371SOL     OW 4172   0.772   2.118   2.824  0.4147 -0.1211 -0.2217
 1371SOL    HW1 4173   0.745   2.026   2.830 -0.6727  0.2427  1.1097
 1371SOL    HW2 4174   0.795   2.131   2.733  0.7680 -1.7705 -0.3933
 1372SOL     OW 4175   2.228   3.065   2.348  0.0724  0.1442 -0.2133
 1372SOL    HW1 4176   2.134   3.060   2.367  0.1679 -1.0049  0.0576
 1372SOL    HW2 4177   2.267   3.098   2.428 -0.0836  0.4905 -0.2782
 1373SOL     OW 4178   2.154   4.794   1.628 -0.0572 -0.2737  0.1270
 1373SOL    HW1 4179   2.143   4.849   1.706  2.2411  1.4354 -0.6294
 1373SOL    HW2 4180   2.222   4.732   1.653 -0.7544 -1.0492  0.1118
 1374SOL     OW 4181   2.636   4.882   2.053 -0.9291  0.3620 -0.0889
 1374SOL    HW1 4182   2.602   4.945   2.117 -1.3843  0.5892 -0.5490
 1374SOL    HW2 4183   2.582   4.895   1.975 -0.6799 -0.2300 -0.3685
 1375SOL     OW 4184   3.504   3.122   3.506 -0.1734  0.2790  0.4915
 1375SOL    HW1 4185   3.520   3.094   3.416 -0.1157 -0.3391  0.6920
 1375SOL    HW2 4186   3.471   3.212   3.497 -1.1187 -0.1198 -0.2087
 1376SOL     OW 4187   3.823   3.516   3.637 -0.0320 -0.0600 -0.3744
 1376SOL    HW1 4188   3.820   3.588   3.699 -1.4333  0.6145 -1.1891
 1376SOL    HW2 4189   3.732   3.498   3.615  0.3873 -0.7858 -1.6669
 1377SOL     OW 4190   4.547   5.127   4.447 -0.0401 -0.0277  0.3040
 1377SOL    HW1 4191   4.480   5.142   4.380 -0.0266 -0.3792  0.2117
 1377SOL    HW2 4192   4.572   5.215   4.475  0.6995  0.1650 -0.8945
 1378SOL     OW 4193   5.242   0.984   2.471  0.1106  0.3078  0.2530
 1378SOL    HW1 4194   5.190   1.000   2.392  0.8223  1.2532 -0.0391
 1378SOL    HW2 4195   5.316   1.043   2.463  1.2106 -0.9696  0.7021
 1379SOL     OW 4196   5.259   0.427   3.278  0.0850 -0.2617  0.2294
 1379SOL    HW1 4197   5.247   0.464   3.191 -0.2896  0.3242  0.5279
 1379SOL    HW2 4198   5.310   0.492   3.326  2.1190 -1.4823 -0.1585
 1380SOL     OW 4199   2.011   1.686   1.140  0.4020  0.3883  0.1231
 1380SOL    HW1 4200   2.035   1.747   1.209  1.2922  0.4158 -0.1983
 1380SOL    HW2 4201   2.027   1.599   1.178  0.8486  0.4022 -0.0343
 1381SOL     OW 4202   3.069   4.124   1.211  0.3833 -0.1750  0.1287
 1381SOL    HW1 4203   3.132   4.167   1.269 -1.5954  0.6801  1.7781
 1381SOL    HW2 4204   2.994   4.184   1.208 -0.9100 -1.7498 -0.6245
 1382SOL     OW 4205   5.088   3.270   2.311  0.7177 -0.3712  1.1724
 1382SOL    HW1 4206   5.090   3.175   2.293 -1.6377 -0.6259  1.9422
 1382SOL    HW2 4207   5.106   3.310   2.226  2.4528 -1.4722  0.9634
 1383SOL     OW 4208   2.578   3.137   1.568  0.4125  0.5261  0.5689
 1383SOL    HW1 4209   2.635   3.066   1.537 -1.4205 -0.6474 -0.2243
 1383SOL    HW2 4210   2.611   3.156   1.656  2.3639  0.2818 -0.0443
 1384SOL     OW 4211   0.323   3.118   3.414  0.0200  0.7490  0.0850
 1384SOL    HW1 4212   0.286   3.178   3.350 -1.2470 -1.3952 -1.2863
 1384SOL    HW2 4213   0.373   3.055   3.363 -0.2288 -0.4693  1.2802
 1385SOL     OW 4214   3.960   0.833   2.400  0.4024 -0.9337  0.3500
 1385SOL    HW1 4215   3.929   0.745   2.423  1.0193 -1.3039 -0.1944
 1385SOL    HW2 4216   4.053   0.831   2.420  0.1890  0.0349  1.5913
 1386SOL     OW 4217   0.968   3.693   0.472 -0.0501 -0.1826 -0.3262
 1386SOL    HW1 4218   0.937   3.766   0.527 -2.6572 -1.1008 -0.4716
 1386SOL    HW2 4219   0.964   3.727   0.383 -0.3310 -0.1829 -0.3152
 1387SOL     OW 4220   0.307   4.306   1.802 -1.2458 -0.3615 -0.0773
 1387SOL    HW1 4221   0.230   4.314   1.745 -0.2136 -0.3439 -1.5230
 1387SOL    HW2 4222   0.379   4.284   1.742 -0.4464 -2.1396  1.4295
 1388SOL     OW 4223   2.932   2.892   2.902  0.3660 -0.4988 -0.6274
 1388SOL    HW1 4224   2.979   2.934   2.830  1.1643 -0.5150 -0.1355
 1388SOL    HW2 4225   2.992   2.824   2.933 -0.8111 -1.8857 -1.2625
 1389SOL     OW 4226   2.131   0.020   2.206  0.4668 -0.0048  0.3444
 1389SOL    HW1 4227   2.154  -0.020   2.289  2.9559 -1.3419 -0.8744
 1389SOL    HW2 4228   2.156   0.112   2.215 -1.5521  0.4746  1.8082
 1390SOL     OW 4229   0.135   4.114   3.464 -0.1173  0.4640  0.3114
 1390SOL    HW1 4230   0.154   4.020   3.465  0.2541  0.5206 -0.3881
 1390SOL    HW2 4231   0.217   4.155   3.493  0.2200  0.6259 -0.8150
 1391SOL     OW 4232   0.697   4.717   3.826  0.7563  0.7578  0.3326
 1391SOL    HW1 4233   0.715   4.764   3.745  1.6213 -0.7959 -0.4264
 1391SOL    HW2 4234   0.692   4.625   3.800 -2.1411  0.4838  1.5486
 1392SOL     OW 4235   5.415   3.794   3.232  0.1770  0.1308 -0.0738
 1392SOL    HW1 4236   5.436   3.705   3.260  2.5209  0.0789 -1.6953
 1392SOL    HW2 4237   5.452   3.849   3.302 -1.5958 -0.1085  1.1158
 1393SOL     OW 4238   3.385   4.628   2.199 -0.1620 -0.0635  0.1925
 1393SOL    HW1 4239   3.342   4.701   2.243 -0.6638 -0.4193  0.3167
 1393SOL    HW2 4240   3.402   4.565   2.269  3.6875  1.4084  0.8073
 1394SOL     OW 4241   0.518   4.138   3.004  0.2368 -0.0778 -0.1419
 1394SOL    HW1 4242   0.513   4.233   3.014 -0.2720 -0.1703  0.5834
 1394SOL    HW2 4243   0.504   4.123   2.910  0.3610  0.5640 -0.2670
 1395SOL     OW 4244   3.736   3.758   1.101  0.1326  0.4357  0.4337
 1395SOL    HW1 4245   3.656   3.769   1.049  1.5757  1.5063 -1.7033
 1395SOL    HW2 4246   3.788   3.836   1.082  2.5834 -1.1839  0.0864
 1396SOL     OW 4247   1.643   2.395   1.895  0.2753  0.1035  0.2540
 1396SOL    HW1 4248   1.593   2.361   1.970  0.9143  1.0890  1.1728
 1396SOL    HW2 4249   1.581   2.451   1.849  0.4396  1.1768  1.2845
 1397SOL     OW 4250   5.237   3.512   4.442 -0.4336  0.9474 -0.6804
 1397SOL    HW1 4251   5.190   3.582   4.488 -0.6476  0.3047  0.0967
 1397SOL    HW2 4252   5.177   3.484   4.373 -0.6041  1.1071 -0.5974
 1398SOL     OW 4253   1.777   2.913   2.170  0.1296  0.7158 -0.2637
 1398SOL    HW1 4254   1.768   2.916   2.075  0.5950 -0.5083 -0.3727
 1398SOL    HW2 4255   1.867   2.941   2.186  0.2445  0.3428 -0.2417
 1399SOL     OW 4256   2.908   0.656   0.770 -0.1045 -0.1670  0.4505
 1399SOL    HW1 4257   2.980   0.602   0.736 -0.3778 -1.0448  1.2237
 1399SOL    HW2 4258   2.875   0.703   0.693  2.6572  1.9434  0.4194
 1400SOL     OW 4259   0.396   4.807   2.877  0.1331 -0.1363  0.0525
 1400SOL    HW1 4260   0.482   4.824   2.839  0.2337 -0.3915  0.1637
 1400SOL    HW2 4261   0.366   4.893   2.907 -0.2827  0.2145 -1.2872
 1401SOL     OW 4262   4.501   0.895   0.427 -0.0028 -0.1348 -0.0220
 1401SOL    HW1 4263   4.548   0.814   0.407  0.5390  0.1666  0.0030
 1401SOL    HW2 4264   4.423   0.891   0.372  1.2368  0.4642 -1.9191
 1402SOL     OW 4265   3.351   2.404   0.086  0.2836  0.1212  0.3855
 1402SOL    HW1 4266   3.324   2.340   0.020 -0.4769  1.0034 -0.1888
 1402SOL    HW2 4267   3.438   2.376   0.114  0.2347 -0.7757 -0.3413
 1403SOL     OW 4268   2.864   4.610   2.873  0.3422 -0.1610 -0.3318
 1403SOL    HW1 4269   2.812   4.532   2.890 -0.2921  0.3183 -0.0393
 1403SOL    HW2 4270   2.821   4.653   2.799  0.0445  0.4588  0.1806
 1404SOL     OW 4271   3.177   0.335   3.851 -0.2133 -0.1244 -0.3963
 1404SOL    HW1 4272   3.210   0.298   3.769  0.2078  1.1439 -0.8402
 1404SOL    HW2 4273   3.243   0.401   3.875 -0.5624 -0.1568  0.7246
 1405SOL     OW 4274   1.857   1.876   0.728  0.3140  0.2184 -0.3766
 1405SOL    HW1 4275   1.891   1.891   0.816 -2.0209 -0.1035  0.6787
 1405SOL    HW2 4276   1.857   1.781   0.718 -2.3221  0.0414  0.6204
 1406SOL     OW 4277   4.615   2.726   4.383  0.0694  0.3953  0.1429
 1406SOL    HW1 4278   4.528   2.766   4.385  0.2535  0.7952  0.9034
 1406SOL    HW2 4279   4.606   2.648   4.439  0.2960  0.6486  0.5316
 1407SOL     OW 4280   5.188   1.422   0.011  0.1719  0.1653 -0.3910
 1407SOL    HW1 4281   5.185   1.340  -0.039 -1.6430 -0.0762  0.0487
 1407SOL    HW2 4282   5.180   1.394   0.102 -0.1281  0.8172 -0.2168
 1408SOL     OW 4283   3.520   2.781   0.183  0.4391  0.2711 -0.0724
 1408SOL    HW1 4284   3.537   2.702   0.235  0.9884 -1.6323 -2.9629
 1408SOL    HW2 4285   3.603   2.828   0.182  0.6810 -0.1584 -0.0455
 1409SOL     OW 4286   0.260   2.353   2.817  0.6875 -0.0662 -0.1526
 1409SOL    HW1 4287   0.298   2.299   2.886  0.8937  0.7213  0.3637
 1409SOL    HW2 4288   0.191   2.299   2.779  1.1714 -0.8472  0.0674
 1410SOL     OW 4289   5.186   2.335   1.138  0.1952 -0.4767  0.0540
 1410SOL    HW1 4290   5.219   2.423   1.156 -0.2325 -0.3530  0.2585
 1410SOL    HW2 4291   5.091   2.346   1.130  0.0870 -0.9842  0.5213
 1411SOL     OW 4292   3.927   2.586   4.385  0.8344 -0.3663 -0.6629
 1411SOL    HW1 4293   3.965   2.665   4.423  0.3744  0.0714 -1.1094
 1411SOL    HW2 4294   3.907   2.531   4.461  1.2713 -0.1119 -0.3586
 1412SOL     OW 4295   1.918   1.280   0.947  0.3053 -0.1293  0.7496
 1412SOL    HW1 4296   1.837   1.258   0.993  0.1229 -0.3594  0.3232
 1412SOL    HW2 4297   1.908   1.241   0.861  0.3449  0.8695  0.2744
 1413SOL     OW 4298   2.815   1.399   2.530  0.2547 -0.1157 -0.5620
 1413SOL    HW1 4299   2.727   1.408   2.495 -0.5185 -1.9861  0.7281
 1413SOL    HW2 4300   2.803   1.394   2.625  1.9540  1.4464 -0.2070
 1414SOL     OW 4301   1.694   1.694   2.545  0.3034 -0.3256  0.8811
 1414SOL    HW1 4302   1.648   1.707   2.462 -0.4518  0.4134  1.3982
 1414SOL    HW2 4303   1.634   1.728   2.611  1.1899 -0.2629  1.6735
 1415SOL     OW 4304   1.570   1.032   2.093 -0.0356 -0.0106  0.0408
 1415SOL    HW1 4305   1.660   1.059   2.074 -0.1223  0.7555  0.6702
 1415SOL    HW2 4306   1.556   0.954   2.039  1.7041 -1.4045  1.5307
 1416SOL     OW 4307   0.594   4.060   3.658 -0.3873 -0.4834  0.2483
 1416SOL    HW1 4308   0.526   4.072   3.725 -0.1309 -0.3487  0.4867
 1416SOL    HW2 4309   0.626   3.971   3.672 -1.4895 -1.0773 -0.7781
 1417SOL     OW 4310   4.379   0.458   2.331  0.2142 -0.5206  0.0048
 1417SOL    HW1 4311   4.390   0.404   2.252 -0.4017 -1.8363  0.7851
 1417SOL    HW2 4312   4.361   0.395   2.401 -0.3122  0.6887  1.0009
 1418SOL     OW 4313   2.709   1.381   0.110 -0.0382  0.4001  0.4450
 1418SOL    HW1 4314   2.701   1.476   0.095 -1.3707  0.4969  1.6040
 1418SOL    HW2 4315   2.676   1.368   0.199  1.3991 -0.9913  0.8174
 1419SOL     OW 4316   4.544   0.583   2.844 -0.0643  0.7330  0.1318
 1419SOL    HW1 4317   4.624   0.562   2.797 -0.6412 -0.5820 -0.3018
 1419SOL    HW2 4318   4.489   0.628   2.780 -0.7768 -0.8946 -0.4428
 1420SOL     OW 4319   2.983   2.530   2.666 -0.6660 -0.2539 -0.0936
 1420SOL    HW1 4320   2.943   2.468   2.727 -1.3103  0.5591  0.3358
 1420SOL    HW2 4321   3.074   2.535   2.694  0.4138 -3.7663 -2.4225
 1421SOL     OW 4322   1.319   4.253   4.035 -0.1215  0.0450  0.1029
 1421SOL    HW1 4323   1.297   4.335   3.992  0.0928 -0.4240 -0.9340
 1421SOL    HW2 4324   1.267   4.253   4.115  1.6886  2.2706  1.3755
 1422SOL     OW 4325   3.330   0.819   0.805 -0.0510  0.7836 -0.1272
 1422SOL    HW1 4326   3.318   0.911   0.828  0.2421  0.7858  0.0132
 1422SOL    HW2 4327   3.424   0.810   0.789 -0.2168  0.7482 -1.1548
 1423SOL     OW 4328   5.056   4.735   3.303 -0.2106 -0.4194  0.2545
 1423SOL    HW1 4329   4.967   4.705   3.285 -1.0987  2.4522 -0.7237
 1423SOL    HW2 4330   5.083   4.779   3.223  1.1981  0.7695  1.3253
 1424SOL     OW 4331   4.467   3.086   1.857 -0.0720 -0.7173 -0.0177
 1424SOL    HW1 4332   4.389   3.049   1.815 -0.0727 -0.9339  0.1689
 1424SOL    HW2 4333   4.537   3.076   1.792  0.0408 -1.5097  0.2147
 1425SOL     OW 4334   1.248   1.959   0.548  0.0587 -0.7572  0.1193
 1425SOL    HW1 4335   1.161   1.918   0.556 -1.4155  1.8666 -1.1895
 1425SOL    HW2 4336   1.259   2.008   0.630 -0.7366  0.6401 -0.5702
 1426SOL     OW 4337   5.235   4.966   2.392  0.1426  0.0250  0.3641
 1426SOL    HW1 4338   5.184   4.959   2.311 -0.6419 -1.5954  0.9691
 1426SOL    HW2 4339   5.177   5.009   2.454  0.4188  0.4079  0.3693
 1427SOL     OW 4340   1.704   1.632   3.918  0.1562 -0.0179 -0.0280
 1427SOL    HW1 4341   1.702   1.727   3.933  1.3619 -0.0609  0.5205
 1427SOL    HW2 4342   1.717   1.594   4.005  0.2785 -0.6561 -0.3189
 1428SOL     OW 4343   3.102   0.589   3.543  0.2140  0.2633 -1.0691
 1428SOL    HW1 4344   3.036   0.644   3.584  0.0194 -0.6369 -0.1460
 1428SOL    HW2 4345   3.108   0.622   3.453 -0.9726  0.8222 -0.9607
 1429SOL     OW 4346   1.955   2.533   0.604  1.0146 -0.5404 -0.1814
 1429SOL    HW1 4347   1.945   2.615   0.555  0.5269 -0.7048 -0.3691
 1429SOL    HW2 4348   2.046   2.508   0.592  1.3796  0.3883  0.5316
 1430SOL     OW 4349   2.498   2.625   1.011 -0.2368 -0.0466 -0.1182
 1430SOL    HW1 4350   2.580   2.638   1.058 -0.9793  0.3277  1.1115
 1430SOL    HW2 4351   2.440   2.694   1.043 -1.6030 -1.3511  0.3669
 1431SOL     OW 4352   4.731   4.988   1.025 -1.0405 -0.1934  0.3854
 1431SOL    HW1 4353   4.691   5.072   1.046  1.1232  0.7367  0.9598
 1431SOL    HW2 4354   4.759   4.997   0.934  0.5523  0.3141  0.8967
 1432SOL     OW 4355   1.933   2.642   4.161 -0.3553  0.3543  0.9027
 1432SOL    HW1 4356   1.992   2.640   4.237  0.0372  2.2545  0.6782
 1432SOL    HW2 4357   1.884   2.724   4.170 -1.8170 -0.3927  0.1924
 1433SOL     OW 4358   2.897   1.649   2.087 -0.0736 -0.0731  0.3888
 1433SOL    HW1 4359   2.915   1.589   2.159 -0.5886 -0.9094 -0.1719
 1433SOL    HW2 4360   2.872   1.731   2.130 -1.6179 -0.9228  1.1773
 1434SOL     OW 4361   4.717   2.164   2.049  0.0107  0.3413 -0.7274
 1434SOL    HW1 4362   4.745   2.175   2.140 -2.2003  0.6398 -0.0088
 1434SOL    HW2 4363   4.664   2.084   2.050  1.3965 -0.6431 -2.1636
 1435SOL     OW 4364   4.484   2.576   3.125  0.3346  0.0519  0.5228
 1435SOL    HW1 4365   4.396   2.613   3.120  0.7926  1.0586 -0.4386
 1435SOL    HW2 4366   4.539   2.648   3.157  1.0463 -0.1354 -0.2348
 1436SOL     OW 4367   3.391   2.392   1.408 -0.0414  0.1124  0.4349
 1436SOL    HW1 4368   3.398   2.421   1.317  0.1302 -0.5355  0.2426
 1436SOL    HW2 4369   3.379   2.474   1.457 -0.4655  0.4442 -0.1966
 1437SOL     OW 4370   5.241   2.395   0.379 -0.2729  0.3615 -0.2103
 1437SOL    HW1 4371   5.255   2.301   0.385 -2.8047 -0.0928 -0.3093
 1437SOL    HW2 4372   5.207   2.420   0.466  1.0738  1.3504  0.0641
 1438SOL     OW 4373   4.232   3.822   2.353  0.1143  0.5173  0.5764
 1438SOL    HW1 4374   4.182   3.845   2.275  1.5464  0.7948 -0.3122
 1438SOL    HW2 4375   4.288   3.899   2.368  0.1425  0.3003  1.6325
 1439SOL     OW 4376   0.256   0.409   1.950 -0.3884 -0.6795  0.1127
 1439SOL    HW1 4377   0.235   0.376   1.863 -1.3806  0.4647 -0.1048
 1439SOL    HW2 4378   0.194   0.363   2.008 -0.3053 -0.8052  0.1024
 1440SOL     OW 4379   2.734   0.294   1.483  0.5293  0.5178 -0.0737
 1440SOL    HW1 4380   2.738   0.217   1.427  0.2644  0.2054  0.3352
 1440SOL    HW2 4381   2.681   0.356   1.433 -1.7008 -0.5953  0.8039
 1441SOL     OW 4382   4.630   0.454   4.401 -0.4182  0.2203 -0.0746
 1441SOL    HW1 4383   4.593   0.542   4.410  0.4810  0.4711  1.8370
 1441SOL    HW2 4384   4.619   0.415   4.488  0.3608 -1.0815 -0.5353
 1442SOL     OW 4385   4.773   0.052   3.804  0.3942  0.1711 -0.0813
 1442SOL    HW1 4386   4.803   0.127   3.751  1.4363  1.0679  1.6591
 1442SOL    HW2 4387   4.852  -0.002   3.814 -0.3052 -1.1126 -1.1533
 1443SOL     OW 4388   0.513   2.921   1.193  0.6492  0.7469  0.1720
 1443SOL    HW1 4389   0.582   2.914   1.259 -0.0799 -1.9776  0.7731
 1443SOL    HW2 4390   0.504   2.832   1.159 -2.6898  0.9544  0.2639
 1444SOL     OW 4391   1.272   2.491   2.332 -0.4586  0.3526  0.0977
 1444SOL    HW1 4392   1.361   2.490   2.295 -0.1194 -1.9717  0.7842
 1444SOL    HW2 4393   1.215   2.476   2.257 -0.0525 -0.7742  0.0010
 1445SOL     OW 4394   4.133   4.110   4.284  0.4866 -0.6627 -0.1499
 1445SOL    HW1 4395   4.131   4.204   4.267  1.0856 -0.8327 -1.2193
 1445SOL    HW2 4396   4.066   4.097   4.352 -0.7081  0.3086 -1.0936
 1446SOL     OW 4397   2.273   1.063   2.509  0.0710  0.1459  0.2855
 1446SOL    HW1 4398   2.191   1.033   2.470 -0.5102 -0.6976  2.0432
 1446SOL    HW2 4399   2.294   1.144   2.462  0.0608 -1.3219 -2.5139
 1447SOL     OW 4400   5.206   2.270   2.888  0.2179  0.3782  0.5242
 1447SOL    HW1 4401   5.159   2.347   2.919 -0.1612 -0.1226  1.2272
 1447SOL    HW2 4402   5.174   2.199   2.944  0.4450 -0.3145 -0.2128
 1448SOL     OW 4403   0.151   1.621   0.873 -0.3088 -0.0896  0.1071
 1448SOL    HW1 4404   0.116   1.678   0.941 -1.1219  0.3017 -0.6271
 1448SOL    HW2 4405   0.106   1.537   0.886  0.2174 -0.3077  0.6113
 1449SOL     OW 4406   1.619   2.940   3.831 -0.2185  0.6546 -0.3970
 1449SOL    HW1 4407   1.540   2.918   3.783 -0.4908  1.1695 -0.1872
 1449SOL    HW2 4408   1.624   3.036   3.828 -0.8291  0.7902  1.4957
 1450SOL     OW 4409   1.663   3.607   2.374  0.1941 -0.3157 -0.3533
 1450SOL    HW1 4410   1.722   3.662   2.425 -0.0888 -0.1945 -0.1562
 1450SOL    HW2 4411   1.647   3.530   2.429  0.9702 -0.8226 -0.8277
 1451SOL     OW 4412   3.210   1.942   2.957  0.1629  0.4691  0.2572
 1451SOL    HW1 4413   3.180   1.990   2.880 -0.2656 -1.7545 -1.0493
 1451SOL    HW2 4414   3.296   1.980   2.978 -1.2045  3.4740  0.9202
 1452SOL     OW 4415   4.788   3.937   2.640  0.8207  0.0213  0.4608
 1452SOL    HW1 4416   4.738   4.012   2.671 -0.1244 -0.3865 -0.0547
 1452SOL    HW2 4417   4.726   3.886   2.588  2.0317  0.0290 -1.0463
 1453SOL     OW 4418   3.547   5.058   3.765  0.3014  0.2428 -0.5127
 1453SOL    HW1 4419   3.595   5.046   3.683  0.6018  0.4765 -0.3729
 1453SOL    HW2 4420   3.521   5.150   3.765  2.5587  0.9549  0.8435
 1454SOL     OW 4421   0.302   2.549   3.004  0.5811  0.2381 -0.6905
 1454SOL    HW1 4422   0.311   2.509   2.917  0.3250  0.1594 -0.6825
 1454SOL    HW2 4423   0.218   2.517   3.036  0.9298 -0.1881 -0.1771
 1455SOL     OW 4424   3.273   3.034   3.594  0.0443  0.5793 -0.1039
 1455SOL    HW1 4425   3.363   3.063   3.579  0.2409  0.3704  0.6489
 1455SOL    HW2 4426   3.227   3.112   3.624  0.0845  0.5768 -0.0370
 1456SOL     OW 4427   3.831   0.656   4.149 -0.1829  0.8206 -0.1065
 1456SOL    HW1 4428   3.860   0.613   4.068 -0.8511  1.5044 -0.7293
 1456SOL    HW2 4429   3.877   0.610   4.219  2.1602  1.6781 -1.0146
 1457SOL     OW 4430   2.125   3.535   3.727  0.3912  0.5047  0.0829
 1457SOL    HW1 4431   2.175   3.525   3.808  0.7061 -0.3550 -0.2014
 1457SOL    HW2 4432   2.106   3.445   3.700 -1.4681  0.7928  0.2747
 1458SOL     OW 4433   3.373   1.256   4.070 -0.3660  0.2806 -0.1662
 1458SOL    HW1 4434   3.435   1.274   3.999 -0.5768 -0.6976 -0.6136
 1458SOL    HW2 4435   3.428   1.242   4.147 -0.0640  0.0949 -0.4121
 1459SOL     OW 4436   0.055   0.218   2.040 -0.0457 -0.3541 -0.5136
 1459SOL    HW1 4437   0.110   0.146   2.010 -1.0755 -1.4386  0.1555
 1459SOL    HW2 4438   0.057   0.212   2.136 -1.5804 -0.6259 -0.4774
 1460SOL     OW 4439   0.562   5.079   0.842  0.2170 -0.0620 -0.4366
 1460SOL    HW1 4440   0.530   5.029   0.917  1.9272 -0.6097 -0.0343
 1460SOL    HW2 4441   0.589   5.163   0.879  1.7622 -0.6026 -0.2636
 1461SOL     OW 4442   2.466   4.990   2.893 -0.1407  0.1358  0.1176
 1461SOL    HW1 4443   2.467   5.050   2.967  1.1304  1.2524 -0.7553
 1461SOL    HW2 4444   2.412   4.916   2.922  1.9899 -0.4727  2.9306
 1462SOL     OW 4445   0.165   2.760   0.342  0.2869  0.3248  0.3625
 1462SOL    HW1 4446   0.125   2.712   0.270 -0.1537 -0.8672  1.3757
 1462SOL    HW2 4447   0.222   2.697   0.385  1.3321  1.2990  0.4746
 1463SOL     OW 4448   0.932   0.597   2.738  0.0945 -0.1248  0.2880
 1463SOL    HW1 4449   0.999   0.561   2.796  0.0149  0.3742  0.7015
 1463SOL    HW2 4450   0.961   0.687   2.721  0.8550 -0.6873 -1.6011
 1464SOL     OW 4451   0.896   4.046   2.091  0.2954  0.2217  0.1295
 1464SOL    HW1 4452   0.982   4.085   2.107  0.5924 -0.5878  0.5563
 1464SOL    HW2 4453   0.834   4.114   2.116  0.7966  0.1837  1.5540
 1465SOL     OW 4454   1.056   4.389   3.028  0.3260  0.4397 -0.1309
 1465SOL    HW1 4455   1.057   4.421   3.118  0.0209 -0.5782  0.2383
 1465SOL    HW2 4456   0.968   4.354   3.015  0.7218 -0.4834 -0.4348
 1466SOL     OW 4457   5.286   2.174   1.317  0.0546  0.8240 -0.0229
 1466SOL    HW1 4458   5.270   2.113   1.245  2.3101  1.3485 -1.0525
 1466SOL    HW2 4459   5.250   2.257   1.287 -1.4793  0.4649  0.6762
 1467SOL     OW 4460   0.435   2.384   1.857  0.1700 -0.6481  0.1539
 1467SOL    HW1 4461   0.376   2.355   1.787 -0.3227  0.4390  0.1056
 1467SOL    HW2 4462   0.422   2.318   1.926  0.8893 -1.9040 -0.8632
 1468SOL     OW 4463   5.032   0.724   3.408 -0.2001  0.0160  0.3628
 1468SOL    HW1 4464   5.123   0.705   3.388 -0.4566  0.4173 -1.3418
 1468SOL    HW2 4465   5.001   0.776   3.334 -1.8995 -0.3680  0.7525
 1469SOL     OW 4466   3.808   4.065   2.093 -0.1583 -0.2587 -0.4130
 1469SOL    HW1 4467   3.826   4.034   2.005  0.7497  0.9672 -0.6824
 1469SOL    HW2 4468   3.893   4.097   2.125 -0.7343  0.4822  0.4154
 1470SOL     OW 4469   3.079   1.954   1.961 -0.3233  0.2367 -0.4585
 1470SOL    HW1 4470   3.143   1.971   2.030 -0.3766  0.9187 -0.5708
 1470SOL    HW2 4471   3.109   2.005   1.886 -1.3826  1.1687 -0.2820
 1471SOL     OW 4472   4.289   1.490   1.271 -0.0148 -0.6409 -0.0965
 1471SOL    HW1 4473   4.242   1.472   1.190  0.4218 -0.9240 -0.2879
 1471SOL    HW2 4474   4.369   1.535   1.244  0.7812 -1.9082  0.0483
 1472SOL     OW 4475   4.494   1.169   3.621  0.2551 -0.0022  0.1190
 1472SOL    HW1 4476   4.513   1.125   3.704  0.3738 -1.9750 -0.8920
 1472SOL    HW2 4477   4.411   1.214   3.636  0.1263 -0.5778  1.2114
 1473SOL     OW 4478   2.725   2.336   3.509 -0.2893  0.1199 -0.0059
 1473SOL    HW1 4479   2.789   2.307   3.573 -1.4703 -0.2174  1.0499
 1473SOL    HW2 4480   2.649   2.280   3.523 -0.9848  0.7895 -0.9383
 1474SOL     OW 4481   0.640   3.700   0.745 -0.6561  0.2010  0.6350
 1474SOL    HW1 4482   0.606   3.776   0.697 -1.8660 -0.2013  0.8128
 1474SOL    HW2 4483   0.587   3.627   0.713 -2.3526  0.0810  3.3751
 1475SOL     OW 4484   1.960   4.745   0.996 -0.8873  0.2440  0.1073
 1475SOL    HW1 4485   2.053   4.720   0.991 -0.6393  0.9057  1.1282
 1475SOL    HW2 4486   1.947   4.802   0.921 -0.3082  0.6092  0.2764
 1476SOL     OW 4487   3.953   1.092   0.319  0.3786 -0.1372  0.3306
 1476SOL    HW1 4488   4.028   1.153   0.324  1.2470 -1.2194  0.8558
 1476SOL    HW2 4489   3.909   1.102   0.403 -1.5183  2.2243 -0.8131
 1477SOL     OW 4490   0.718   1.584   1.188 -0.0104  0.0433 -0.2526
 1477SOL    HW1 4491   0.774   1.660   1.181  0.7656 -0.5570 -0.6936
 1477SOL    HW2 4492   0.776   1.513   1.216 -0.3450 -0.8089 -1.6391
 1478SOL     OW 4493   5.275   0.796   0.208 -0.2609 -0.4847  0.3791
 1478SOL    HW1 4494   5.294   0.704   0.223 -0.6623 -0.3511  1.8379
 1478SOL    HW2 4495   5.349   0.842   0.248 -0.3802 -0.1470  0.2132
 1479SOL     OW 4496   0.564   2.961   3.721 -0.4065 -0.2328 -0.7211
 1479SOL    HW1 4497   0.609   3.011   3.789  1.2699  0.7471 -2.4779
 1479SOL    HW2 4498   0.607   2.876   3.721 -0.6012 -0.3346 -0.3939
 1480SOL     OW 4499   0.119   4.253   3.949 -0.0958 -0.0207 -0.3118
 1480SOL    HW1 4500   0.167   4.328   3.914 -0.4815  0.4892  0.2283
 1480SOL    HW2 4501   0.069   4.219   3.875 -0.9716  1.0941 -0.2599
 1481SOL     OW 4502   2.494   2.821   1.312  0.2443  0.0442 -0.4261
 1481SOL    HW1 4503   2.439   2.804   1.389 -0.9898 -1.4027 -1.5584
 1481SOL    HW2 4504   2.518   2.913   1.319 -0.9574  0.2818  0.9788
 1482SOL     OW 4505   1.026   1.700   3.297 -0.0266 -0.0027  0.5444
 1482SOL    HW1 4506   0.966   1.760   3.341 -0.4123  0.5193 -0.6544
 1482SOL    HW2 4507   1.070   1.754   3.232  1.2049 -0.5534  0.8837
 1483SOL     OW 4508   2.410   3.862   0.112  0.0749 -0.0918 -0.3355
 1483SOL    HW1 4509   2.360   3.909   0.045  0.0546  1.6851  0.8471
 1483SOL    HW2 4510   2.489   3.833   0.067  0.1099  1.1488 -1.1280
 1484SOL     OW 4511   5.278   0.749   3.272  0.0019  0.3686 -0.5570
 1484SOL    HW1 4512   5.293   0.836   3.308 -1.1638 -0.1471  1.2838
 1484SOL    HW2 4513   5.360   0.702   3.288 -1.0501 -0.4761  3.5406
 1485SOL     OW 4514   0.428   1.318   1.361 -0.0925  0.1523  0.1956
 1485SOL    HW1 4515   0.363   1.385   1.382 -0.2921  0.1432 -0.3808
 1485SOL    HW2 4516   0.435   1.321   1.265  0.4766 -0.1078  0.2257
 1486SOL     OW 4517   3.111   2.253   2.144  0.4987  0.0542  0.2939
 1486SOL    HW1 4518   3.024   2.263   2.104 -0.1479  0.3974  1.7240
 1486SOL    HW2 4519   3.171   2.288   2.079 -0.2655 -1.4411 -1.3201
 1487SOL     OW 4520   1.485   4.771   4.389  0.2811  0.0103  0.4343
 1487SOL    HW1 4521   1.405   4.791   4.341 -0.2790 -0.1391  1.2705
 1487SOL    HW2 4522   1.553   4.764   4.322 -0.3073  0.6230 -0.2456
 1488SOL     OW 4523   4.574   2.670   2.274 -0.3882  0.1078  0.4707
 1488SOL    HW1 4524   4.513   2.714   2.215 -0.4489  1.9311  1.8010
 1488SOL    HW2 4525   4.581   2.581   2.240 -1.2830  0.7672 -1.5875
 1489SOL     OW 4526   3.000   0.606   0.300  0.1883  0.5050  0.5573
 1489SOL    HW1 4527   3.076   0.663   0.286 -0.7514  1.1979 -2.3301
 1489SOL    HW2 4528   3.036   0.518   0.292  0.9345  0.7825  0.7024
 1490SOL     OW 4529   0.990   4.850   1.174 -0.3976 -0.0852 -0.0144
 1490SOL    HW1 4530   0.996   4.773   1.117  0.4844 -0.1992  0.2221
 1490SOL    HW2 4531   0.951   4.918   1.118  2.3597  0.4265 -1.4717
 1491SOL     OW 4532   2.746   3.564   3.618  0.4645 -0.1458  0.3018
 1491SOL    HW1 4533   2.744   3.468   3.615 -0.7591 -0.1240  0.1349
 1491SOL    HW2 4534   2.839   3.586   3.615  0.7220 -1.2887 -0.9043
 1492SOL     OW 4535   3.579   4.142   0.525  0.0136 -0.0302  0.4735
 1492SOL    HW1 4536   3.513   4.210   0.534 -0.3071 -0.2778  0.0478
 1492SOL    HW2 4537   3.642   4.160   0.594  1.0356  1.9250 -0.8857
 1493SOL     OW 4538   3.785   2.202   1.122 -0.7723 -0.6541  0.2346
 1493SOL    HW1 4539   3.789   2.167   1.033  0.2706  0.1105 -0.0316
 1493SOL    HW2 4540   3.831   2.137   1.175  0.9573  0.1222 -0.2258
 1494SOL     OW 4541   5.118   0.658   2.318  0.6290 -0.7013  0.2071
 1494SOL    HW1 4542   5.030   0.695   2.318 -0.0620 -2.1853  2.1062
 1494SOL    HW2 4543   5.170   0.720   2.267 -1.3731  0.5202 -0.4495
 1495SOL     OW 4544   4.035   0.391   3.619  0.3585  0.2616 -1.0824
 1495SOL    HW1 4545   4.077   0.469   3.656  1.5032 -0.5685 -0.5733
 1495SOL    HW2 4546   4.011   0.338   3.695 -0.4394  0.1147 -1.4237
 1496SOL     OW 4547   4.953   0.569   2.667  0.1175  0.1123 -0.4692
 1496SOL    HW1 4548   5.008   0.501   2.627  2.7856  1.5038  0.5436
 1496SOL    HW2 4549   4.935   0.631   2.596 -1.6588 -1.1809 -1.2079
 1497SOL     OW 4550   2.181   0.599   2.408 -0.2227 -0.3557  0.0041
 1497SOL    HW1 4551   2.218   0.687   2.419  0.5205 -0.6853  0.1866
 1497SOL    HW2 4552   2.188   0.559   2.495 -0.5118 -0.6099 -0.0886
 1498SOL     OW 4553   1.817   4.722   4.291  0.2361 -0.1721 -0.3410
 1498SOL    HW1 4554   1.887   4.750   4.234 -1.2040  1.8271 -1.2212
 1498SOL    HW2 4555   1.823   4.778   4.368  1.2246 -1.8336  0.8745
 1499SOL     OW 4556   3.453   0.236   2.954  0.2336 -0.1855  0.1312
 1499SOL    HW1 4557   3.548   0.247   2.945  0.2273 -0.2104  0.0305
 1499SOL    HW2 4558   3.418   0.268   2.871  0.1166  0.2862  0.3609
 1500SOL     OW 4559   5.331   4.174   0.462 -0.6824  0.7981 -0.3119
 1500SOL    HW1 4560   5.247   4.219   0.456 -1.0646 -0.0760 -1.9430
 1500SOL    HW2 4561   5.392   4.229   0.412 -0.7953  0.3221 -0.9838
 1501SOL     OW 4562   0.205   1.598   3.749 -0.2136 -0.1237 -0.3122
 1501SOL    HW1 4563   0.263   1.558   3.814  0.4139  1.5591  0.2102
 1501SOL    HW2 4564   0.123   1.613   3.797  0.6032  2.1424  0.5037
 1502SOL     OW 4565   3.123   1.538   0.572  0.0817 -0.5270  0.4348
 1502SOL    HW1 4566   3.103   1.615   0.625 -0.1882 -0.0095 -0.4045
 1502SOL    HW2 4567   3.054   1.475   0.594 -0.6000  0.0529 -0.0408
 1503SOL     OW 4568   4.208   4.640   3.370 -0.2900  0.1159 -0.4507
 1503SOL    HW1 4569   4.271   4.654   3.299  1.9231  0.5295  1.4685
 1503SOL    HW2 4570   4.186   4.547   3.364  3.0791 -0.8755  0.6967
 1504SOL     OW 4571   3.617   4.305   3.417  0.3886 -0.0519  0.5237
 1504SOL    HW1 4572   3.606   4.225   3.468  0.1845  0.4065  1.2143
 1504SOL    HW2 4573   3.672   4.361   3.472 -0.7858  0.9025  0.7689
 1505SOL     OW 4574   1.049   3.519   3.852 -0.0594 -0.1036  0.3385
 1505SOL    HW1 4575   1.116   3.587   3.863 -0.5117  0.2001  1.2343
 1505SOL    HW2 4576   1.028   3.490   3.941  0.7791 -2.0743 -0.0483
 1506SOL     OW 4577   3.017   4.486   3.969 -0.1775 -0.4250  0.3370
 1506SOL    HW1 4578   2.986   4.576   3.978  0.7385 -0.1550  1.0302
 1506SOL    HW2 4579   2.981   4.455   3.886  2.2300  1.7229 -1.6727
 1507SOL     OW 4580   4.734   1.099   1.542  0.1122  1.1597 -0.7257
 1507SOL    HW1 4581   4.793   1.160   1.586  1.7377 -1.5413  1.1149
 1507SOL    HW2 4582   4.646   1.127   1.569  0.9478  0.7052  3.0125
 1508SOL     OW 4583   2.974   3.388   1.118  0.2728  0.1860 -0.1699
 1508SOL    HW1 4584   2.994   3.458   1.057 -0.4046 -0.5156 -1.2335
 1508SOL    HW2 4585   2.989   3.426   1.205  0.7689  1.3517 -0.7475
 1509SOL     OW 4586   2.347   2.408   1.099 -0.1963 -0.0006  0.3602
 1509SOL    HW1 4587   2.348   2.485   1.043  0.7148 -0.6958 -0.6349
 1509SOL    HW2 4588   2.439   2.396   1.124 -0.4449 -0.3161  1.1312
 1510SOL     OW 4589   2.504   3.613   0.502  0.6036 -0.9877  0.5038
 1510SOL    HW1 4590   2.442   3.595   0.573  1.2797  1.9217  2.0009
 1510SOL    HW2 4591   2.453   3.603   0.422 -2.2047  2.1430  1.6706
 1511SOL     OW 4592   2.586   4.979   0.421 -0.2747 -0.3546 -0.3682
 1511SOL    HW1 4593   2.499   4.988   0.460 -0.6263  1.4291 -1.4521
 1511SOL    HW2 4594   2.571   4.932   0.339 -0.3153  0.3976 -0.8022
 1512SOL     OW 4595   3.487   2.127   3.238 -0.9151  0.3555  0.5634
 1512SOL    HW1 4596   3.399   2.096   3.261 -0.2682 -1.9328  0.2296
 1512SOL    HW2 4597   3.545   2.081   3.299  0.1471  0.9457  0.0246
 1513SOL     OW 4598   3.650   2.729   1.533 -0.3860  0.6593  0.0267
 1513SOL    HW1 4599   3.609   2.810   1.503 -0.2421  0.8604  0.3681
 1513SOL    HW2 4600   3.683   2.688   1.453 -3.1751 -0.6107 -0.5785
 1514SOL     OW 4601   3.856   2.465   3.124  0.7867  0.1242  0.4757
 1514SOL    HW1 4602   3.830   2.390   3.177  2.0394 -0.9704 -0.3727
 1514SOL    HW2 4603   3.815   2.451   3.039  2.5164 -0.6520 -0.2864
 1515SOL     OW 4604   3.019   3.263   2.598 -0.0065  0.2954  0.0087
 1515SOL    HW1 4605   2.935   3.306   2.612  0.1108  0.1099  1.4727
 1515SOL    HW2 4606   3.075   3.296   2.669  0.7447 -0.5958 -0.1449
 1516SOL     OW 4607   4.022   3.846   1.652 -0.6319 -0.4893  0.2071
 1516SOL    HW1 4608   4.012   3.798   1.571  0.7164 -0.6597  0.1090
 1516SOL    HW2 4609   4.105   3.893   1.642 -0.3801 -0.6135  1.5262
 1517SOL     OW 4610   4.371   4.648   3.869  0.1876 -0.4519  0.3843
 1517SOL    HW1 4611   4.441   4.610   3.816  0.8324 -0.6400  1.3593
 1517SOL    HW2 4612   4.416   4.706   3.931 -0.5778 -0.0445  0.5702
 1518SOL     OW 4613   2.347   3.029   1.704 -0.8243  0.1326 -0.4178
 1518SOL    HW1 4614   2.296   3.030   1.623  0.0436 -4.3144 -1.2584
 1518SOL    HW2 4615   2.438   3.033   1.675 -0.5295  1.3830  0.6047
 1519SOL     OW 4616   5.038   0.243   2.964  0.3661 -0.0047  0.3288
 1519SOL    HW1 4617   5.097   0.294   2.908 -1.3965  0.6836 -0.9848
 1519SOL    HW2 4618   5.020   0.301   3.038 -0.3020  0.6366 -0.3225
 1520SOL     OW 4619   3.896   2.649   3.711 -0.3631 -0.0888  0.2626
 1520SOL    HW1 4620   3.908   2.578   3.648 -0.6250  0.0133  0.0965
 1520SOL    HW2 4621   3.923   2.728   3.664 -0.1518 -0.0668  0.4192
 1521SOL     OW 4622   0.353   0.921   0.331 -0.5995 -0.4223  0.3132
 1521SOL    HW1 4623   0.318   0.835   0.310 -3.3875  0.6396  0.2258
 1521SOL    HW2 4624   0.351   0.969   0.249  0.4571 -0.0916  0.4642
 1522SOL     OW 4625   4.516   2.042   3.760 -0.4324  0.3753 -0.1828
 1522SOL    HW1 4626   4.605   2.078   3.764 -0.6186  1.1932 -2.1576
 1522SOL    HW2 4627   4.528   1.953   3.726 -0.3189  0.2296  0.2359
 1523SOL     OW 4628   1.635   0.450   4.377  0.5608 -0.0034  0.1903
 1523SOL    HW1 4629   1.730   0.437   4.375  0.3865 -1.4102 -0.5697
 1523SOL    HW2 4630   1.615   0.496   4.296  0.4419 -1.1214 -0.4370
 1524SOL     OW 4631   1.095   0.311   3.509 -0.3746  0.1770 -0.0794
 1524SOL    HW1 4632   1.014   0.324   3.558 -0.3664  0.5209 -0.1571
 1524SOL    HW2 4633   1.069   0.313   3.417 -0.4529 -0.8823 -0.0955
 1525SOL     OW 4634   3.320   0.624   1.392  0.2790 -0.5814 -0.3498
 1525SOL    HW1 4635   3.381   0.698   1.387 -2.9672  2.2750 -2.3260
 1525SOL    HW2 4636   3.326   0.582   1.306  0.4718 -1.2622 -0.0157
 1526SOL     OW 4637   5.340   3.553   1.654  0.1899 -0.3887 -0.5234
 1526SOL    HW1 4638   5.432   3.539   1.629 -0.1955  0.3675 -2.4998
 1526SOL    HW2 4639   5.340   3.641   1.692  0.1727 -0.1274 -1.1251
 1527SOL     OW 4640   1.612   0.733   4.042 -0.1477  0.2944  0.3761
 1527SOL    HW1 4641   1.683   0.797   4.042 -0.2642  0.4294  1.0272
 1527SOL    HW2 4642   1.654   0.651   4.017 -0.5204  1.1445 -3.6731
 1528SOL     OW 4643   2.207   2.018   0.816  0.5811 -0.6159  0.4901
 1528SOL    HW1 4644   2.214   2.063   0.900  0.1402  2.3664 -0.9353
 1528SOL    HW2 4645   2.298   1.994   0.795  0.6664 -1.6450  1.8725
 1529SOL     OW 4646   1.022   2.735   1.175 -0.0732  0.0328  0.2482
 1529SOL    HW1 4647   1.042   2.661   1.232 -0.1613  0.0825  0.3445
 1529SOL    HW2 4648   1.108   2.770   1.150  0.0680 -1.4755 -1.6316
 1530SOL     OW 4649   0.177   2.854   1.851 -0.3008 -0.5769  0.0581
 1530SOL    HW1 4650   0.250   2.805   1.889  1.2818  1.7679  0.2203
 1530SOL    HW2 4651   0.132   2.893   1.926 -2.0476 -2.3065 -0.0080
 1531SOL     OW 4652   4.653   1.288   3.417 -0.7582 -0.1496  0.1086
 1531SOL    HW1 4653   4.607   1.248   3.490 -3.0587 -0.5640 -1.4557
 1531SOL    HW2 4654   4.598   1.361   3.391 -0.2487 -0.2886 -1.4852
 1532SOL     OW 4655   1.938   2.006   3.158  0.0110 -0.1874  0.3796
 1532SOL    HW1 4656   1.944   2.091   3.115  1.7332  0.7093  2.2331
 1532SOL    HW2 4657   1.848   2.001   3.191 -0.5300  0.2426 -0.9722
 1533SOL     OW 4658   4.069   0.906   0.732  0.2499  0.6281  0.0134
 1533SOL    HW1 4659   3.995   0.966   0.746 -0.6487 -0.2197 -0.9104
 1533SOL    HW2 4660   4.126   0.953   0.671  0.8349  1.5742  1.2633
 1534SOL     OW 4661   1.411   1.775   1.197 -0.1420  0.1722  0.2957
 1534SOL    HW1 4662   1.447   1.702   1.147 -1.6859 -0.4645  0.0315
 1534SOL    HW2 4663   1.455   1.853   1.163  1.9041 -0.6451  0.9184
 1535SOL     OW 4664   2.205   4.630   1.933  0.1949 -0.5253 -0.0619
 1535SOL    HW1 4665   2.210   4.535   1.947  3.2388 -0.4885 -0.1101
 1535SOL    HW2 4666   2.297   4.658   1.931 -0.6176  2.7882  2.2687
 1536SOL     OW 4667   0.910   5.138   3.147 -0.4667  0.0603 -0.0264
 1536SOL    HW1 4668   0.857   5.186   3.210  2.9833  0.5371  2.8561
 1536SOL    HW2 4669   0.971   5.088   3.201  1.7053 -0.7974 -3.0326
 1537SOL     OW 4670   1.380   3.871   2.980  0.3873 -0.0502 -0.3113
 1537SOL    HW1 4671   1.360   3.965   2.982  2.2033  0.4242  3.1250
 1537SOL    HW2 4672   1.308   3.830   3.026  1.2514  0.1720  1.3172
 1538SOL     OW 4673   4.159   4.364   3.268 -0.1286 -0.1734 -0.0486
 1538SOL    HW1 4674   4.192   4.378   3.180  1.0097 -1.0831  0.2046
 1538SOL    HW2 4675   4.227   4.312   3.311 -0.5952  0.3734  1.4102
 1539SOL     OW 4676   4.197   2.798   0.506 -0.0152 -0.3037  0.2777
 1539SOL    HW1 4677   4.239   2.811   0.591 -1.0738  1.5451  0.5690
 1539SOL    HW2 4678   4.248   2.852   0.446  0.5207 -1.3361 -0.2269
 1540SOL     OW 4679   4.628   0.227   0.958  0.2788  0.3019  0.5051
 1540SOL    HW1 4680   4.618   0.157   0.893 -2.0354  1.4434 -0.4982
 1540SOL    HW2 4681   4.540   0.264   0.967  0.9867  1.6458  2.6638
 1541SOL     OW 4682   1.497   2.813   3.469 -0.0406 -0.3979  0.3612
 1541SOL    HW1 4683   1.490   2.822   3.564 -1.1203  0.3474  0.2325
 1541SOL    HW2 4684   1.555   2.884   3.442 -0.7134  0.1535  0.3472
 1542SOL     OW 4685   1.711   3.036   1.919 -0.1768  0.1043  0.1343
 1542SOL    HW1 4686   1.734   2.982   1.843  1.5689 -1.0447  1.3929
 1542SOL    HW2 4687   1.764   3.115   1.909  0.5107 -0.3078  0.4243
 1543SOL     OW 4688   2.182   4.099   3.412  0.5466 -0.1441  0.0001
 1543SOL    HW1 4689   2.146   4.188   3.405  0.1275 -0.3823 -1.1501
 1543SOL    HW2 4690   2.159   4.071   3.500 -0.1461  0.5414  0.0551
 1544SOL     OW 4691   0.325   1.975   4.343  0.3945  0.2729  0.2458
 1544SOL    HW1 4692   0.266   2.044   4.313  0.8080  1.2632  1.6151
 1544SOL    HW2 4693   0.413   2.013   4.337  0.7528 -0.5908 -0.1850
 1545SOL     OW 4694   4.872   3.624   2.031  0.2273  0.0412 -0.2442
 1545SOL    HW1 4695   4.857   3.718   2.027  0.0828  0.0528  0.5673
 1545SOL    HW2 4696   4.965   3.614   2.052 -0.1618  0.0361  1.6267
 1546SOL     OW 4697   1.836   5.133   3.197  0.0984  0.2874 -0.5489
 1546SOL    HW1 4698   1.753   5.178   3.212 -0.0159  0.6220 -2.0266
 1546SOL    HW2 4699   1.880   5.186   3.132  1.3258 -0.0959 -0.0505
 1547SOL     OW 4700   1.529   5.073   2.342 -0.1972  0.5787 -0.3472
 1547SOL    HW1 4701   1.447   5.075   2.391 -1.8916 -1.8858 -2.7894
 1547SOL    HW2 4702   1.542   4.981   2.320  1.6336  1.2629 -2.5756
 1548SOL     OW 4703   0.320   4.543   0.272 -0.7912 -0.0582  0.4094
 1548SOL    HW1 4704   0.332   4.622   0.221  1.4664  0.3341  1.4209
 1548SOL    HW2 4705   0.374   4.556   0.350  0.2100 -2.8386  0.3046
 1549SOL     OW 4706   5.321   1.687   1.125 -0.0202  0.5548  0.3754
 1549SOL    HW1 4707   5.259   1.615   1.133  0.6492 -0.4031 -1.9855
 1549SOL    HW2 4708   5.390   1.668   1.189  0.3426 -1.1822 -0.4652
 1550SOL     OW 4709   1.996   0.911   0.995 -0.3448 -0.6473 -0.3944
 1550SOL    HW1 4710   2.000   0.847   1.067 -0.5468 -0.4843 -0.2374
 1550SOL    HW2 4711   2.048   0.985   1.027 -1.4406 -0.0678  0.0966
 1551SOL     OW 4712   1.987   2.005   4.056 -0.1579 -0.0742 -0.1100
 1551SOL    HW1 4713   2.058   2.038   4.002 -0.0332 -1.8933 -1.1210
 1551SOL    HW2 4714   1.983   2.066   4.129 -0.8577  3.0016 -2.4836
 1552SOL     OW 4715   3.012   0.606   4.446 -0.8236 -0.1250  0.1478
 1552SOL    HW1 4716   3.018   0.543   4.517 -0.4832 -1.0640 -0.6851
 1552SOL    HW2 4717   2.967   0.559   4.375 -1.7563  1.0009 -0.0352
 1553SOL     OW 4718   3.605   3.623   3.070 -0.6408 -0.3801 -0.6980
 1553SOL    HW1 4719   3.680   3.663   3.025  0.2884  0.8946  1.8146
 1553SOL    HW2 4720   3.616   3.529   3.055  1.3465 -0.2001 -0.6165
 1554SOL     OW 4721   5.183   1.926   1.120 -0.1052 -0.3057 -0.3271
 1554SOL    HW1 4722   5.220   1.838   1.122  0.9676  0.1235  1.6802
 1554SOL    HW2 4723   5.147   1.939   1.208 -0.4845  1.1592 -0.6672
 1555SOL     OW 4724   4.213   3.248   1.663  0.1609  0.3809 -0.7892
 1555SOL    HW1 4725   4.126   3.284   1.644 -0.8879  1.6345  4.5541
 1555SOL    HW2 4726   4.201   3.153   1.659 -0.9073  0.5457 -1.9813
 1556SOL     OW 4727   1.223   5.104   2.135  0.5592 -0.1060  0.5282
 1556SOL    HW1 4728   1.146   5.155   2.112  1.0821 -0.2301 -1.6832
 1556SOL    HW2 4729   1.297   5.163   2.118  1.1208 -1.2255 -1.1662
 1557SOL     OW 4730   5.096   1.917   0.203 -0.1953  0.6524  0.0707
 1557SOL    HW1 4731   5.069   1.936   0.113 -0.0459  1.9677  0.2867
 1557SOL    HW2 4732   5.188   1.943   0.207  0.3321 -1.1339  0.1188
 1558SOL     OW 4733   1.953   2.282   4.191 -0.0150  0.2255 -0.0206
 1558SOL    HW1 4734   1.916   2.308   4.276 -0.1004 -0.5456  0.1847
 1558SOL    HW2 4735   1.930   2.354   4.132 -1.9454 -0.2594  0.0652
 1559SOL     OW 4736   0.879   3.289   2.033  0.6105  0.9250  0.5717
 1559SOL    HW1 4737   0.905   3.357   2.095  0.1837  0.7085  0.9974
 1559SOL    HW2 4738   0.813   3.331   1.978  2.1567  1.6240 -0.8252
 1560SOL     OW 4739   1.644   2.947   4.353 -0.0068 -0.3458 -0.8627
 1560SOL    HW1 4740   1.556   2.932   4.319 -0.1604  1.8229 -1.5671
 1560SOL    HW2 4741   1.693   2.982   4.279  1.1773 -0.5628 -0.2047
 1561SOL     OW 4742   1.708   4.499   3.738 -0.0954 -0.1310  0.3529
 1561SOL    HW1 4743   1.755   4.582   3.735 -1.4599  0.7229  1.2204
 1561SOL    HW2 4744   1.743   4.448   3.665 -0.2129  1.7719 -1.1011
 1562SOL     OW 4745   1.443   2.024   1.999 -0.0732 -0.3554 -0.3829
 1562SOL    HW1 4746   1.492   1.974   1.934 -1.1427 -0.3619 -1.2155
 1562SOL    HW2 4747   1.397   2.090   1.947  0.5572  0.8807  0.5911
 1563SOL     OW 4748   4.393   3.466   0.180  0.4101 -0.3509  0.1969
 1563SOL    HW1 4749   4.420   3.383   0.138  0.8039 -0.7321  1.1704
 1563SOL    HW2 4750   4.323   3.441   0.240  1.0919 -0.1369  1.1115
 1564SOL     OW 4751   3.644   2.580   2.995  0.5480  0.0264 -0.1499
 1564SOL    HW1 4752   3.574   2.617   2.941  0.3045  0.0382  0.1717
 1564SOL    HW2 4753   3.606   2.572   3.082  0.6173 -0.9284 -0.1986
 1565SOL     OW 4754   2.293   5.005   0.421 -0.2989 -0.7010 -0.2072
 1565SOL    HW1 4755   2.285   4.978   0.512  2.4305  0.7081  0.5681
 1565SOL    HW2 4756   2.244   5.088   0.416  0.0447 -0.4740  0.1494
 1566SOL     OW 4757   0.786   2.953   2.426 -0.3558 -0.0075  0.7931
 1566SOL    HW1 4758   0.852   2.892   2.394  1.1060  2.5547 -1.4662
 1566SOL    HW2 4759   0.743   2.986   2.347 -0.6572  2.3002  1.8503
 1567SOL     OW 4760   3.796   4.066   3.831  0.3813 -0.0253 -0.3801
 1567SOL    HW1 4761   3.826   3.979   3.859  0.7164  0.7247  1.8542
 1567SOL    HW2 4762   3.806   4.120   3.910 -0.6948  1.8215 -1.4553
 1568SOL     OW 4763   4.504   2.414   2.863  0.2874  0.0147  0.2525
 1568SOL    HW1 4764   4.575   2.475   2.884  0.0141  0.3608  0.1850
 1568SOL    HW2 4765   4.452   2.409   2.944 -0.7862  1.3733 -0.3158
 1569SOL     OW 4766   2.564   0.610   0.786 -0.5854  0.2386 -0.2394
 1569SOL    HW1 4767   2.652   0.582   0.811 -0.8406 -0.5393 -0.1719
 1569SOL    HW2 4768   2.547   0.686   0.841 -0.1494  0.0833  0.1194
 1570SOL     OW 4769   1.146   0.473   0.552 -0.0527  0.0143  0.9049
 1570SOL    HW1 4770   1.158   0.401   0.490  1.9980 -0.2543  1.5281
 1570SOL    HW2 4771   1.231   0.517   0.555 -0.4239  0.7102  2.6701
 1571SOL     OW 4772   1.453   4.015   1.809 -0.2282  0.2781 -0.3485
 1571SOL    HW1 4773   1.489   3.983   1.891 -1.7007 -0.3377  0.0862
 1571SOL    HW2 4774   1.460   4.111   1.815 -1.5632  0.3310  1.1210
 1572SOL     OW 4775   0.242   0.889   1.772  0.0115 -0.4941 -0.3065
 1572SOL    HW1 4776   0.214   0.918   1.685  0.4280 -1.0224 -0.6272
 1572SOL    HW2 4777   0.295   0.811   1.754 -2.0659 -2.2423  0.5555
 1573SOL     OW 4778   0.937   2.809   0.088  0.0137 -0.6579 -0.4549
 1573SOL    HW1 4779   1.007   2.859   0.128  0.1543  0.5970 -2.1613
 1573SOL    HW2 4780   0.857   2.840   0.130  0.3563 -1.3336  0.7393
 1574SOL     OW 4781   3.681   0.995   0.997  0.1629 -0.2874 -0.2973
 1574SOL    HW1 4782   3.723   1.079   0.981 -1.6450  0.6446 -0.4137
 1574SOL    HW2 4783   3.733   0.931   0.949  1.6552  0.7266 -0.0747
 1575SOL     OW 4784   3.171   2.103   2.723  0.1692  0.0756  0.0892
 1575SOL    HW1 4785   3.238   2.143   2.668 -0.2738 -0.4274 -0.8507
 1575SOL    HW2 4786   3.105   2.072   2.661  0.0944 -1.3537  0.8372
 1576SOL     OW 4787   4.519   4.792   1.236  0.2907 -0.1605  0.8708
 1576SOL    HW1 4788   4.433   4.749   1.241  0.3630 -0.4000  0.1503
 1576SOL    HW2 4789   4.566   4.744   1.168 -0.3118  2.1904 -1.4170
 1577SOL     OW 4790   2.136   0.027   1.088 -0.2978 -0.1817 -0.3653
 1577SOL    HW1 4791   2.222   0.067   1.074 -1.0124  0.9952 -1.5735
 1577SOL    HW2 4792   2.147  -0.024   1.168  0.3926  3.2254  1.9315
 1578SOL     OW 4793   0.754   3.547   1.434  1.5155 -0.2425 -0.8156
 1578SOL    HW1 4794   0.757   3.599   1.353  0.5672  0.4718 -0.4063
 1578SOL    HW2 4795   0.688   3.591   1.488  0.4285 -2.0709 -0.5924
 1579SOL     OW 4796   0.361   2.655   1.899 -0.2192  0.5710 -0.6263
 1579SOL    HW1 4797   0.406   2.572   1.912  1.4230  1.7272  1.9164
 1579SOL    HW2 4798   0.269   2.631   1.887 -0.0817 -1.5594  1.8237
 1580SOL     OW 4799   2.331   4.342   0.254  0.4178  0.6069  0.2573
 1580SOL    HW1 4800   2.342   4.375   0.343 -2.0377 -1.0961  1.3078
 1580SOL    HW2 4801   2.261   4.396   0.217  0.4554  0.3957 -0.1256
 1581SOL     OW 4802   1.632   3.857   3.113 -0.3529  0.3900  0.2010
 1581SOL    HW1 4803   1.555   3.863   3.057 -1.5010  1.2416  1.7936
 1581SOL    HW2 4804   1.680   3.939   3.096  2.0241 -1.4474 -3.1490
 1582SOL     OW 4805   5.040   0.478   0.323  0.0764 -0.6118 -0.2910
 1582SOL    HW1 4806   5.001   0.427   0.395 -1.0598  2.6989  1.6690
 1582SOL    HW2 4807   5.133   0.480   0.343 -0.0915 -0.5848  0.5681
 1583SOL     OW 4808   0.022   3.196   1.499  0.1079  0.2677 -0.3767
 1583SOL    HW1 4809   0.099   3.148   1.529  0.3707 -0.3566 -1.9272
 1583SOL    HW2 4810   0.050   3.287   1.497  1.3550 -0.0901 -2.3109
 1584SOL     OW 4811   4.029   0.498   2.730 -0.1567 -0.5571 -0.2582
 1584SOL    HW1 4812   4.085   0.465   2.660  1.3271 -0.2262  0.7303
 1584SOL    HW2 4813   4.033   0.593   2.721  1.4801 -0.4349  1.3061
 1585SOL     OW 4814   4.042   1.454   2.843  0.4644 -0.4935  0.3348
 1585SOL    HW1 4815   3.968   1.481   2.789  0.3429 -2.4389 -0.5629
 1585SOL    HW2 4816   4.009   1.380   2.894  0.6910  1.0224  2.8814
 1586SOL     OW 4817   2.078   2.617   0.843 -0.2365  0.1810  0.3031
 1586SOL    HW1 4818   2.035   2.560   0.779  0.5437  1.3065 -1.2873
 1586SOL    HW2 4819   2.169   2.620   0.816 -0.4106  2.8792 -0.2607
 1587SOL     OW 4820   4.587   4.171   3.247 -0.4099 -0.1117 -0.0037
 1587SOL    HW1 4821   4.573   4.167   3.341 -0.7993 -0.6492 -0.0768
 1587SOL    HW2 4822   4.509   4.216   3.213 -0.5816 -0.5048 -0.1311
 1588SOL     OW 4823   1.886   5.154   3.908 -0.1335  0.0831 -0.2813
 1588SOL    HW1 4824   1.937   5.229   3.876 -1.9412  1.0595 -1.0344
 1588SOL    HW2 4825   1.833   5.189   3.980  0.3971 -0.9614  0.6454
 1589SOL     OW 4826   5.351   0.560   3.642  0.1057  0.8624  0.1521
 1589SOL    HW1 4827   5.406   0.605   3.578 -0.0281  0.7622 -0.0338
 1589SOL    HW2 4828   5.337   0.624   3.712 -1.1451  1.5565 -0.7003
 1590SOL     OW 4829   5.143   4.448   0.108 -0.2823 -0.4229  0.0453
 1590SOL    HW1 4830   5.236   4.473   0.115  0.1444 -1.5472 -1.0808
 1590SOL    HW2 4831   5.133   4.422   0.016 -1.7347 -0.3251  0.1530
 1591SOL     OW 4832   4.712   0.844   3.000 -0.2255 -0.7763  0.3598
 1591SOL    HW1 4833   4.729   0.767   2.946  0.5859 -0.6310  0.4015
 1591SOL    HW2 4834   4.795   0.862   3.044 -0.8489 -0.8519  1.6170
 1592SOL     OW 4835   5.464   0.489   2.757 -0.6101  0.1539 -0.0120
 1592SOL    HW1 4836   5.555   0.501   2.783 -0.3956 -1.4079  0.0576
 1592SOL    HW2 4837   5.444   0.566   2.703  1.2011 -0.1723 -1.2318
 1593SOL     OW 4838   3.213   5.061   1.235 -0.1260 -0.2670  0.1144
 1593SOL    HW1 4839   3.155   5.136   1.246  0.8022  0.1792  2.4697
 1593SOL    HW2 4840   3.243   5.040   1.323  2.5683 -1.0590 -0.8968
 1594SOL     OW 4841   1.356   1.004   1.677 -0.1895 -0.5990  0.2113
 1594SOL    HW1 4842   1.391   1.046   1.755 -1.3741 -0.4907  0.7038
 1594SOL    HW2 4843   1.393   0.916   1.677  1.3978  0.0453 -0.2010
 1595SOL     OW 4844   4.977   0.950   1.442  0.4427 -0.4057  0.2414
 1595SOL    HW1 4845   4.982   0.857   1.461  0.8341 -0.6973 -1.1286
 1595SOL    HW2 4846   4.883   0.968   1.431  0.4321 -0.8967 -0.5711
 1596SOL     OW 4847   2.728   0.643   3.656 -0.4807  0.3632 -0.7868
 1596SOL    HW1 4848   2.784   0.720   3.669  0.7992 -0.5302 -0.8203
 1596SOL    HW2 4849   2.743   0.590   3.734  0.4281 -0.9065 -1.7946
 1597SOL     OW 4850   2.149   1.681   1.994 -0.4469 -0.0815 -0.0819
 1597SOL    HW1 4851   2.202   1.688   1.915  0.1388  0.9609  0.3944
 1597SOL    HW2 4852   2.129   1.771   2.019 -1.4660 -0.4214  0.4151
 1598SOL     OW 4853   4.652   4.335   0.048  0.2479  0.3899 -0.3123
 1598SOL    HW1 4854   4.571   4.315   0.096  0.1221  0.1358 -0.6300
 1598SOL    HW2 4855   4.694   4.250   0.038  2.0949  0.8059  2.5605
 1599SOL     OW 4856   2.729   3.623   0.910  0.1595 -0.2342 -0.3581
 1599SOL    HW1 4857   2.706   3.532   0.891  1.8083 -0.8046  0.2021
 1599SOL    HW2 4858   2.708   3.634   1.002  1.0414 -0.4339 -0.1205
 1600SOL     OW 4859   2.201   4.114   2.718 -0.1725  0.1983  0.7017
 1600SOL    HW1 4860   2.248   4.032   2.731 -0.7599 -0.4177 -0.8460
 1600SOL    HW2 4861   2.116   4.100   2.759  0.0404  0.3707  1.2135
 1601SOL     OW 4862   0.356   2.348   3.892 -0.1611 -0.1460  0.4844
 1601SOL    HW1 4863   0.367   2.408   3.818  1.1405 -1.6243 -0.5793
 1601SOL    HW2 4864   0.427   2.371   3.953 -0.3118  0.0807  0.5751
 1602SOL     OW 4865   3.815   0.879   2.131  0.1274 -0.4355 -0.2629
 1602SOL    HW1 4866   3.831   0.786   2.149  2.4105 -0.2328 -0.9484
 1602SOL    HW2 4867   3.854   0.925   2.206  0.4466  0.0279 -0.7112
 1603SOL     OW 4868   5.363   1.744   4.349 -0.4683 -0.4504  0.7644
 1603SOL    HW1 4869   5.456   1.760   4.365 -0.4040  0.6461 -0.4463
 1603SOL    HW2 4870   5.322   1.830   4.362 -1.4002 -1.0344  1.7853
 1604SOL     OW 4871   5.245   5.042   0.107 -0.0744  0.4002 -0.5959
 1604SOL    HW1 4872   5.168   5.098   0.111 -0.3068  0.0575 -0.0863
 1604SOL    HW2 4873   5.296   5.066   0.185 -0.5731 -0.6397  0.0798
 1605SOL     OW 4874   4.875   2.114   1.030  0.2501  0.2510  0.0160
 1605SOL    HW1 4875   4.805   2.080   0.974 -0.5467  1.4520  0.2345
 1605SOL    HW2 4876   4.937   2.154   0.970 -0.6567  1.6343 -0.0426
 1606SOL     OW 4877   1.022   3.861   2.759  0.3161 -0.1002  0.1771
 1606SOL    HW1 4878   1.074   3.923   2.810  2.5743 -0.5652 -1.4244
 1606SOL    HW2 4879   1.076   3.783   2.752 -0.6909 -0.7248 -1.3573
 1607SOL     OW 4880   1.959   3.981   3.264 -0.0789  0.0224 -0.3799
 1607SOL    HW1 4881   1.947   4.035   3.186 -1.2088 -1.2787 -1.1547
 1607SOL    HW2 4882   2.023   4.029   3.317  0.6981  0.9565 -2.0820
 1608SOL     OW 4883   2.993   2.135   0.894 -0.1004 -0.5456  0.2379
 1608SOL    HW1 4884   3.054   2.141   0.968  0.2444 -0.6924 -0.0335
 1608SOL    HW2 4885   3.045   2.096   0.824  0.0704  1.0917 -0.5947
 1609SOL     OW 4886   3.473   4.425   2.693 -0.4344 -0.2583  0.3773
 1609SOL    HW1 4887   3.513   4.512   2.689  1.9889 -1.2776  0.3890
 1609SOL    HW2 4888   3.380   4.441   2.705 -0.1766  2.3280 -0.6164
 1610SOL     OW 4889   2.468   5.083   1.366  0.1838 -0.6110  0.7713
 1610SOL    HW1 4890   2.402   5.022   1.330 -0.6619  0.4169  0.5380
 1610SOL    HW2 4891   2.463   5.069   1.461 -0.6636 -0.2700  0.7889
 1611SOL     OW 4892   0.404   3.975   0.203 -0.4079 -0.1047 -0.2150
 1611SOL    HW1 4893   0.441   4.041   0.145 -1.1798  1.4386  0.9861
 1611SOL    HW2 4894   0.468   3.967   0.274  0.8916 -2.5079 -1.4873
 1612SOL     OW 4895   0.856   1.329   1.129 -0.5508  0.0189 -0.3314
 1612SOL    HW1 4896   0.906   1.270   1.184 -1.0491 -1.6571 -1.5903
 1612SOL    HW2 4897   0.919   1.359   1.063 -0.0388  1.7590  0.8899
 1613SOL     OW 4898   4.493   0.966   3.383  0.1316  0.4594  0.4770
 1613SOL    HW1 4899   4.460   1.034   3.441 -2.3305 -0.2214 -0.0161
 1613SOL    HW2 4900   4.478   1.000   3.295 -1.1103 -0.6798  0.2217
 1614SOL     OW 4901   2.643   2.206   3.932 -0.1829  0.1968 -0.1320
 1614SOL    HW1 4902   2.681   2.142   3.992 -1.8945 -1.2598 -0.5411
 1614SOL    HW2 4903   2.549   2.191   3.936 -0.5552  1.9916 -1.0510
 1615SOL     OW 4904   2.415   4.588   0.408 -0.6711  0.5495 -0.4921
 1615SOL    HW1 4905   2.430   4.654   0.341  0.3861  2.3414  1.3776
 1615SOL    HW2 4906   2.492   4.531   0.403 -0.5760  0.7039 -0.7967
 1616SOL     OW 4907   2.934   4.806   1.524 -0.1881  0.0744  0.2287
 1616SOL    HW1 4908   3.010   4.865   1.528 -0.0861 -0.1071  1.2781
 1616SOL    HW2 4909   2.923   4.776   1.614 -1.6847  0.3132  0.1457
 1617SOL     OW 4910   3.132   0.139   3.348 -0.0506 -0.4081  0.2699
 1617SOL    HW1 4911   3.170   0.188   3.276  1.4489 -0.5985  0.8869
 1617SOL    HW2 4912   3.143   0.047   3.323 -0.5580 -0.4701  0.2519
 1618SOL     OW 4913   2.808   2.441   0.446  0.3128  0.1586 -0.2920
 1618SOL    HW1 4914   2.848   2.424   0.362 -0.2726  1.4339 -0.8589
 1618SOL    HW2 4915   2.855   2.384   0.508 -0.2859 -1.9782 -1.6916
 1619SOL     OW 4916   3.587   1.894   3.897 -0.3398 -0.0264 -0.4644
 1619SOL    HW1 4917   3.616   1.883   3.807 -0.3290 -1.6202 -0.2883
 1619SOL    HW2 4918   3.644   1.837   3.948  0.1857  1.4492  0.6821
 1620SOL     OW 4919   0.121   2.696   4.372 -0.2898 -0.0173 -0.3776
 1620SOL    HW1 4920   0.041   2.720   4.418  0.1855  2.8418 -0.8919
 1620SOL    HW2 4921   0.109   2.731   4.283  0.8258 -1.1104 -0.9879
 1621SOL     OW 4922   5.300   5.067   0.556 -0.0850 -0.4860  0.1629
 1621SOL    HW1 4923   5.317   5.158   0.580 -0.7550 -0.5731  0.9937
 1621SOL    HW2 4924   5.293   5.068   0.461 -0.1131  0.3331  0.1689
 1622SOL     OW 4925   3.284   0.028   0.348  0.1343 -0.0143  0.0519
 1622SOL    HW1 4926   3.364   0.068   0.314  0.9058 -0.2630  1.5034
 1622SOL    HW2 4927   3.215   0.093   0.332  0.4804 -0.0353 -1.7334
 1623SOL     OW 4928   3.748   0.649   2.778 -0.1075  0.3564  0.0979
 1623SOL    HW1 4929   3.820   0.587   2.783 -1.5506 -1.3677  0.3068
 1623SOL    HW2 4930   3.703   0.642   2.862  0.5622  2.8647  0.7594
 1624SOL     OW 4931   0.038   2.981   2.850 -0.0360  0.3506  0.0433
 1624SOL    HW1 4932  -0.024   2.953   2.783  1.5300  1.0999 -1.8292
 1624SOL    HW2 4933   0.112   2.920   2.842  0.5174  0.9343  0.5618
 1625SOL     OW 4934   1.550   0.507   3.643 -0.1757  0.1896 -0.1904
 1625SOL    HW1 4935   1.544   0.481   3.551 -0.2413 -0.7457  0.0704
 1625SOL    HW2 4936   1.642   0.496   3.666 -0.0961  0.7410 -0.2307
 1626SOL     OW 4937   2.718   3.682   1.160 -0.1123 -0.0128 -0.5542
 1626SOL    HW1 4938   2.691   3.772   1.174  0.0421  0.2298 -1.7246
 1626SOL    HW2 4939   2.724   3.645   1.248  2.3042  1.8386  0.1886
 1627SOL     OW 4940   2.450   3.288   0.234 -0.0797 -0.7707  0.1794
 1627SOL    HW1 4941   2.531   3.248   0.265 -0.0955  0.5691  2.1316
 1627SOL    HW2 4942   2.443   3.259   0.143  1.4356 -2.6794  0.5902
 1628SOL     OW 4943   1.079   1.461   3.985 -0.0294  0.0161  0.0101
 1628SOL    HW1 4944   1.009   1.523   3.962  0.0269  0.1586  0.2237
 1628SOL    HW2 4945   1.104   1.422   3.901 -0.8153 -0.5183  0.0180
 1629SOL     OW 4946   1.751   0.214   1.807  0.0752 -0.1582  0.2089
 1629SOL    HW1 4947   1.710   0.291   1.767  3.0631  2.5075  1.8406
 1629SOL    HW2 4948   1.817   0.187   1.743  0.3091 -0.1811  0.4609
 1630SOL     OW 4949   1.197   1.279   2.271 -0.0024  0.0247 -0.3629
 1630SOL    HW1 4950   1.280   1.232   2.273 -0.5847 -1.0190 -0.0612
 1630SOL    HW2 4951   1.215   1.361   2.317  0.9904  0.0371 -0.7553
 1631SOL     OW 4952   3.099   0.961   3.906 -0.7360 -0.4288 -0.5222
 1631SOL    HW1 4953   3.113   1.012   3.986  1.2903  1.2675 -1.8509
 1631SOL    HW2 4954   3.168   0.895   3.908 -1.8563 -1.6348 -0.0045
 1632SOL     OW 4955   5.081   4.340   3.607  0.5396 -0.1873  0.2513
 1632SOL    HW1 4956   5.169   4.358   3.640  0.0825  0.3323  1.2464
 1632SOL    HW2 4957   5.085   4.251   3.573  1.3526 -0.2964  0.6143
 1633SOL     OW 4958   2.298   4.313   1.500 -0.2037  1.0474 -0.0886
 1633SOL    HW1 4959   2.235   4.270   1.558 -0.4273  1.1094 -0.2857
 1633SOL    HW2 4960   2.364   4.349   1.560 -0.4910  1.2094  0.1352
 1634SOL     OW 4961   4.206   2.055   0.903 -0.5050 -0.0756 -0.3110
 1634SOL    HW1 4962   4.207   2.037   0.809 -0.0732  0.0424 -0.3344
 1634SOL    HW2 4963   4.299   2.053   0.928 -0.7316 -2.9696  0.6622
 1635SOL     OW 4964   4.776   2.525   3.707 -0.3641 -0.4326 -0.1987
 1635SOL    HW1 4965   4.714   2.593   3.733 -0.4457  1.3302 -4.1954
 1635SOL    HW2 4966   4.730   2.474   3.641  1.1459 -1.6380 -0.3806
 1636SOL     OW 4967   1.625   0.947   4.358  0.3958 -0.2385 -0.0109
 1636SOL    HW1 4968   1.675   1.027   4.369  1.3944 -0.9822  1.1720
 1636SOL    HW2 4969   1.540   0.975   4.325 -0.0768  1.5368  2.5179
 1637SOL     OW 4970   0.431   4.938   1.375  0.0111  0.3014 -0.1606
 1637SOL    HW1 4971   0.504   4.990   1.345 -0.6018  0.8561 -0.7183
 1637SOL    HW2 4972   0.441   4.853   1.331 -0.4626  0.8547 -1.3757
 1638SOL     OW 4973   1.433   0.915   3.044  0.0965 -0.4198  0.1375
 1638SOL    HW1 4974   1.401   0.829   3.072 -0.3999 -0.5330 -0.7527
 1638SOL    HW2 4975   1.389   0.976   3.103 -0.6333 -0.6831 -0.1132
 1639SOL     OW 4976   0.670   4.189   0.482  0.6018  0.3800  0.0406
 1639SOL    HW1 4977   0.673   4.184   0.386 -2.0987  0.3987 -0.1269
 1639SOL    HW2 4978   0.701   4.278   0.502  0.1333  0.7750 -0.9051
 1640SOL     OW 4979   2.813   2.122   4.130  0.5259  0.3466  0.7457
 1640SOL    HW1 4980   2.866   2.195   4.162  0.7990  0.8998 -0.8986
 1640SOL    HW2 4981   2.877   2.059   4.096  0.2374  1.5856 -2.4731
 1641SOL     OW 4982   4.866   0.869   2.717  0.0958 -0.5951 -0.0617
 1641SOL    HW1 4983   4.781   0.912   2.706 -0.6812 -1.6469  1.4079
 1641SOL    HW2 4984   4.864   0.836   2.807  2.4891  0.2463  0.3644
 1642SOL     OW 4985   3.682   2.225   2.875 -0.0996  0.8952  0.0188
 1642SOL    HW1 4986   3.739   2.194   2.945 -0.3894  1.2539  0.4164
 1642SOL    HW2 4987   3.737   2.283   2.823  0.8048 -1.1296 -1.4214
 1643SOL     OW 4988   1.698   4.471   1.943 -0.0687 -0.0244  0.3112
 1643SOL    HW1 4989   1.773   4.520   1.976  0.7805 -2.0906  1.6623
 1643SOL    HW2 4990   1.733   4.421   1.869 -0.7092  0.7027 -0.5024
 1644SOL     OW 4991   3.116   1.722   4.056  0.7729  1.0518  0.8571
 1644SOL    HW1 4992   3.159   1.696   3.975 -2.1364 -1.0958 -0.1811
 1644SOL    HW2 4993   3.152   1.663   4.122  0.6649  0.4118  0.3569
 1645SOL     OW 4994   3.284   4.961   2.904  0.1912  0.3967 -0.0264
 1645SOL    HW1 4995   3.318   5.001   2.984  1.0885  0.6217 -0.5029
 1645SOL    HW2 4996   3.205   5.011   2.884 -0.1546  0.1991  0.8301
 1646SOL     OW 4997   0.585   4.038   4.286 -0.1634  0.4121  0.6885
 1646SOL    HW1 4998   0.656   4.091   4.323  0.3902  0.8343 -0.9186
 1646SOL    HW2 4999   0.629   3.962   4.249 -0.2882  1.4068 -1.7061
 1647SOL     OW 5000   1.802   5.066   0.029 -0.0649  0.2864 -0.4795
 1647SOL    HW1 5001   1.746   5.094  -0.043 -2.6203 -0.7699  0.9569
 1647SOL    HW2 5002   1.775   5.120   0.103 -0.4268 -1.3713  0.6639
 1648SOL     OW 5003   2.857   0.316   0.174  0.4287 -0.1373 -0.0062
 1648SOL    HW1 5004   2.771   0.340   0.208  0.5937  0.2830  0.1196
 1648SOL    HW2 5005   2.859   0.220   0.180  1.7963 -0.0597  4.5864
 1649SOL     OW 5006   2.662   4.416   0.433 -0.2265 -0.0590  0.2840
 1649SOL    HW1 5007   2.705   4.366   0.363 -2.1742  0.3697 -1.3061
 1649SOL    HW2 5008   2.724   4.487   0.452  1.4703 -1.6072  0.8450
 1650SOL     OW 5009   3.887   1.339   3.843 -0.7626  0.0830  0.5799
 1650SOL    HW1 5010   3.841   1.257   3.859  1.6245 -0.9349  3.0348
 1650SOL    HW2 5011   3.852   1.399   3.909 -0.9556  0.3797  0.2144
 1651SOL     OW 5012   0.005   1.117   0.865 -0.0157 -0.0307 -0.0475
 1651SOL    HW1 5013  -0.011   1.094   0.957 -0.8693  0.3341 -0.0968
 1651SOL    HW2 5014   0.071   1.054   0.836  1.6932  1.0194  1.3443
 1652SOL     OW 5015   0.173   3.998   4.287  0.0876  0.3482  0.4015
 1652SOL    HW1 5016   0.176   4.044   4.371 -2.2541  2.7187 -0.6392
 1652SOL    HW2 5017   0.202   4.064   4.223  2.1598 -1.5048 -0.7047
 1653SOL     OW 5018   0.683   3.414   1.833 -0.1549 -0.1754  0.1991
 1653SOL    HW1 5019   0.731   3.497   1.833 -0.5737  0.0767 -0.1331
 1653SOL    HW2 5020   0.594   3.438   1.860 -0.8782 -0.1203 -1.9891
 1654SOL     OW 5021   4.695   4.407   2.970 -0.2066  0.4220 -0.2819
 1654SOL    HW1 5022   4.674   4.412   3.063  1.6976  2.7395  0.1160
 1654SOL    HW2 5023   4.616   4.437   2.925 -2.1191 -3.1895  0.3039
 1655SOL     OW 5024   1.146   1.028   2.896 -0.1710  0.1406  0.0928
 1655SOL    HW1 5025   1.155   1.019   2.991  2.7128 -0.4495 -0.1666
 1655SOL    HW2 5026   1.162   1.121   2.880 -0.6099  0.2310  0.1622
 1656SOL     OW 5027   0.143   0.449   1.374  0.0741 -0.5968 -0.2105
 1656SOL    HW1 5028   0.088   0.510   1.325  0.4849  0.6478  0.8492
 1656SOL    HW2 5029   0.193   0.504   1.434  0.0472 -2.0155  1.1765
 1657SOL     OW 5030   1.323   3.291   2.430 -0.2174  0.1789  0.1689
 1657SOL    HW1 5031   1.264   3.367   2.432  1.0764  1.2273  0.1748
 1657SOL    HW2 5032   1.329   3.264   2.522 -0.7866 -0.0287  0.1505
 1658SOL     OW 5033   3.974   1.220   0.039 -0.0095 -0.0769  0.1767
 1658SOL    HW1 5034   3.904   1.278   0.069  0.2778  0.9448 -1.0586
 1658SOL    HW2 5035   3.972   1.146   0.100 -2.6619 -0.4393 -0.2264
 1659SOL     OW 5036   3.065   0.630   1.266  0.2262  0.2481  0.0044
 1659SOL    HW1 5037   3.062   0.649   1.172 -0.8160  0.3022  0.0413
 1659SOL    HW2 5038   3.148   0.584   1.278  1.6493  2.5170 -0.4964
 1660SOL     OW 5039   1.597   0.788   2.328 -0.2049 -0.0486 -0.5506
 1660SOL    HW1 5040   1.639   0.703   2.310 -1.4303 -0.4912 -1.4605
 1660SOL    HW2 5041   1.568   0.818   2.242  2.1928  2.4259 -0.6260
 1661SOL     OW 5042   0.870   1.017   4.416  0.1020 -0.2609 -0.5696
 1661SOL    HW1 5043   0.828   1.012   4.502 -1.2132 -1.1455 -1.2405
 1661SOL    HW2 5044   0.877   1.110   4.398 -1.9479 -0.0768 -0.5924
 1662SOL     OW 5045   0.705   4.996   3.843 -0.1312 -0.7675 -0.0292
 1662SOL    HW1 5046   0.711   4.900   3.847  2.5834 -0.6786 -0.4691
 1662SOL    HW2 5047   0.651   5.013   3.766 -0.2069 -1.9505 -0.2577
 1663SOL     OW 5048   4.258   1.980   0.071 -0.0595 -0.2885 -0.0630
 1663SOL    HW1 5049   4.166   1.985   0.096 -0.1055  0.0718 -0.3031
 1663SOL    HW2 5050   4.257   1.982  -0.025  0.2871  1.5664 -0.0602
 1664SOL     OW 5051   2.068   1.726   1.487  0.2355  0.1775 -0.2639
 1664SOL    HW1 5052   2.035   1.809   1.522 -0.0840  0.1306 -0.4475
 1664SOL    HW2 5053   2.013   1.660   1.529  0.7993  0.0232  0.2468
 1665SOL     OW 5054   1.413   1.925   2.615 -0.4595 -1.0361  0.1693
 1665SOL    HW1 5055   1.504   1.895   2.621 -0.4497 -0.9399  0.5450
 1665SOL    HW2 5056   1.416   2.016   2.646 -0.5829 -0.8298 -0.4041
 1666SOL     OW 5057   1.579   0.853   2.819 -0.3831  0.2633  0.0263
 1666SOL    HW1 5058   1.541   0.893   2.741  2.2904  3.5300  0.1668
 1666SOL    HW2 5059   1.540   0.901   2.892 -1.2107 -1.2537  0.6249
 1667SOL     OW 5060   0.855   1.163   3.316 -0.5484  0.5129 -0.1769
 1667SOL    HW1 5061   0.876   1.141   3.226  0.0272 -1.1322  0.3160
 1667SOL    HW2 5062   0.873   1.257   3.323  3.5036 -0.0358 -0.7218
 1668SOL     OW 5063   2.973   4.102   0.459 -0.4710  0.5356 -0.0933
 1668SOL    HW1 5064   2.960   4.062   0.544 -0.5983  1.3079  0.2614
 1668SOL    HW2 5065   3.004   4.031   0.403  0.3284  0.1820  0.7813
 1669SOL     OW 5066   3.843   2.552   3.981 -0.0137 -0.1494  0.0669
 1669SOL    HW1 5067   3.935   2.568   4.002 -0.5067  1.2056  1.3255
 1669SOL    HW2 5068   3.835   2.572   3.887  0.5205  2.0556  0.4382
 1670SOL     OW 5069   4.964   5.149   0.610  0.2981  0.1452  0.1693
 1670SOL    HW1 5070   4.911   5.224   0.584 -0.4385 -0.6537 -0.7357
 1670SOL    HW2 5071   5.023   5.134   0.536  0.1486 -0.4121  0.1561
 1671SOL     OW 5072   0.469   1.607   1.481  0.2080  0.3555 -0.0978
 1671SOL    HW1 5073   0.376   1.626   1.469 -0.0202 -0.6319  0.0606
 1671SOL    HW2 5074   0.513   1.665   1.419 -0.7180 -1.6081 -2.7668
 1672SOL     OW 5075   4.320   0.185   1.324 -0.1867  0.3642 -1.0068
 1672SOL    HW1 5076   4.304   0.229   1.407 -0.0593 -1.7994  0.2488
 1672SOL    HW2 5077   4.416   0.187   1.314 -0.0436 -0.9327 -0.1371
 1673SOL     OW 5078   2.369   4.893   3.640  0.1559  0.3829 -0.0311
 1673SOL    HW1 5079   2.353   4.960   3.707  0.3142  2.3100 -1.7859
 1673SOL    HW2 5080   2.454   4.917   3.603 -0.3325 -0.0486 -1.5058
 1674SOL     OW 5081   0.644   3.872   1.623  0.8918 -0.1772 -0.5153
 1674SOL    HW1 5082   0.641   3.903   1.713 -0.5264  0.6186 -0.8100
 1674SOL    HW2 5083   0.597   3.788   1.624  1.8439 -0.7207 -0.3268
 1675SOL     OW 5084   2.109   2.160   3.872 -0.0364 -0.4156 -0.8141
 1675SOL    HW1 5085   2.137   2.141   3.782 -0.1077  0.0043 -0.9251
 1675SOL    HW2 5086   2.031   2.215   3.862  0.3765  0.2397 -0.4929
 1676SOL     OW 5087   1.233   3.397   1.889 -0.1583  0.6771  0.0628
 1676SOL    HW1 5088   1.223   3.488   1.918  0.9813  0.4528  1.2957
 1676SOL    HW2 5089   1.168   3.348   1.941 -0.4668  0.7297 -0.2742
 1677SOL     OW 5090   3.499   1.538   2.880  0.1215 -0.5653  0.7072
 1677SOL    HW1 5091   3.414   1.502   2.855  0.1107 -0.1006  0.0379
 1677SOL    HW2 5092   3.478   1.618   2.928  0.1705  0.5214 -0.9823
 1678SOL     OW 5093   3.012   0.066   3.893  0.0509  0.3257  0.6285
 1678SOL    HW1 5094   3.004   0.003   3.822 -1.4303 -0.3340  1.3431
 1678SOL    HW2 5095   3.072   0.132   3.859  0.2884 -0.5668 -0.7859
 1679SOL     OW 5096   2.046   0.199   3.227 -0.3444  0.3368  0.1186
 1679SOL    HW1 5097   2.009   0.256   3.295 -0.1704  0.2159  0.3155
 1679SOL    HW2 5098   2.138   0.190   3.252 -0.2726  0.3199 -0.1528
 1680SOL     OW 5099   1.133   3.533   0.679  0.9317  0.0297 -0.0831
 1680SOL    HW1 5100   1.065   3.599   0.670  0.5957 -0.2543  0.3617
 1680SOL    HW2 5101   1.194   3.552   0.608  0.2310  0.0852 -0.6758
 1681SOL     OW 5102   3.685   3.792   2.609 -0.1835 -0.3338 -0.5058
 1681SOL    HW1 5103   3.773   3.772   2.577  0.1445  0.2797 -0.0116
 1681SOL    HW2 5104   3.698   3.824   2.698 -0.8636  0.1889 -0.5822
 1682SOL     OW 5105   2.001   2.957   3.524  0.1260  0.2837  0.2430
 1682SOL    HW1 5106   1.970   3.044   3.550 -0.2012 -0.2028  1.5204
 1682SOL    HW2 5107   2.061   2.975   3.451 -0.8464  1.4765 -0.3102
 1683SOL     OW 5108   3.508   2.927   1.139 -0.3337 -0.1573 -0.8147
 1683SOL    HW1 5109   3.416   2.953   1.152  0.0501  2.2146 -2.1732
 1683SOL    HW2 5110   3.557   2.979   1.203  0.0542 -2.0521  0.5038
 1684SOL     OW 5111   2.519   0.258   1.755 -0.5845  0.2778  0.4744
 1684SOL    HW1 5112   2.606   0.286   1.781 -0.2097  0.1462 -0.5595
 1684SOL    HW2 5113   2.533   0.173   1.713 -0.8467  1.2688 -1.7949
 1685SOL     OW 5114   2.780   0.924   3.767 -0.6699 -0.2389  0.0351
 1685SOL    HW1 5115   2.821   0.946   3.850 -0.3538  1.5480 -0.5477
 1685SOL    HW2 5116   2.688   0.947   3.779 -0.2283  2.2739 -0.7800
 1686SOL     OW 5117   3.783   4.869   2.193  0.4666 -0.2139  0.3419
 1686SOL    HW1 5118   3.796   4.792   2.138  0.0158  0.2062 -0.3636
 1686SOL    HW2 5119   3.871   4.891   2.225  0.7041 -0.5665 -0.0652
 1687SOL     OW 5120   1.738   4.327   2.727 -0.1020  0.3075  0.2939
 1687SOL    HW1 5121   1.676   4.298   2.793  0.7037  0.8582  1.3294
 1687SOL    HW2 5122   1.738   4.423   2.735  0.3971  0.3465 -0.1348
 1688SOL     OW 5123   2.003   3.932   0.534 -0.0395 -0.5113 -0.6003
 1688SOL    HW1 5124   1.978   3.885   0.614  1.2683 -1.3614 -0.6581
 1688SOL    HW2 5125   2.099   3.931   0.535  0.0202  1.2356 -1.1668
 1689SOL     OW 5126   2.990   2.313   4.145 -0.2629 -0.3461  0.2290
 1689SOL    HW1 5127   3.054   2.383   4.159  0.6147 -1.4779  2.3606
 1689SOL    HW2 5128   3.043   2.238   4.117 -1.0086 -0.6056 -0.5267
 1690SOL     OW 5129   2.075   2.099   1.765  0.2145 -0.3146 -0.0963
 1690SOL    HW1 5130   2.002   2.153   1.795  0.9959  0.5944  0.2281
 1690SOL    HW2 5131   2.115   2.150   1.695  0.6819 -0.6974 -0.1088
 1691SOL     OW 5132   1.159   2.069   0.313  0.3544 -0.1789  0.5924
 1691SOL    HW1 5133   1.179   2.084   0.405 -0.3335 -1.3679  0.9535
 1691SOL    HW2 5134   1.223   2.004   0.285 -0.4974 -1.0754  0.6960
 1692SOL     OW 5135   4.822   3.854   0.465 -0.1625 -0.2234 -0.1418
 1692SOL    HW1 5136   4.780   3.779   0.507  0.7845 -0.6472  0.1002
 1692SOL    HW2 5137   4.864   3.901   0.537 -0.7602  0.5567 -0.2929
 1693SOL     OW 5138   4.328   4.209   3.431 -0.2254 -0.0618 -0.3534
 1693SOL    HW1 5139   4.362   4.203   3.521  1.8368 -1.1480 -1.1454
 1693SOL    HW2 5140   4.259   4.143   3.427 -1.2718  0.9029  0.7647
 1694SOL     OW 5141   1.713   4.887   3.141 -0.1220  0.1147  0.2998
 1694SOL    HW1 5142   1.647   4.922   3.201 -0.0545  2.7556 -1.0369
 1694SOL    HW2 5143   1.783   4.951   3.142  0.1990 -0.1075 -2.0575
 1695SOL     OW 5144   4.094   0.267   4.163 -0.2437 -0.2430 -0.1704
 1695SOL    HW1 5145   4.037   0.208   4.113  1.5977 -1.5859 -0.7760
 1695SOL    HW2 5146   4.145   0.209   4.219  0.3602  0.9437  0.5501
 1696SOL     OW 5147   0.041   1.313   0.381  0.7132 -0.1519 -0.5598
 1696SOL    HW1 5148   0.109   1.268   0.431  1.3082  0.6064 -0.6606
 1696SOL    HW2 5149  -0.040   1.268   0.405  1.1307 -0.5172  0.2275
 1697SOL     OW 5150   1.297   0.898   0.544 -0.2907 -0.3179  0.6349
 1697SOL    HW1 5151   1.295   0.937   0.457  3.2776  0.1478  0.6165
 1697SOL    HW2 5152   1.318   0.806   0.529 -1.5989 -0.6937  0.9746
 1698SOL     OW 5153   0.269   0.522   2.791  0.3618  0.3439 -0.0714
 1698SOL    HW1 5154   0.310   0.602   2.822  0.2117  0.5662 -0.4374
 1698SOL    HW2 5155   0.287   0.457   2.859 -1.1035  1.1456  1.1214
 1699SOL     OW 5156   5.092   2.042   3.063  0.1463 -0.3507  0.2440
 1699SOL    HW1 5157   5.135   1.974   3.115  0.6951  1.1918  1.9220
 1699SOL    HW2 5158   5.063   2.106   3.127 -3.0321 -0.3699 -0.9978
 1700SOL     OW 5159   0.720   4.110   3.990  0.1754 -0.4821  0.7231
 1700SOL    HW1 5160   0.631   4.093   4.020 -0.0394  2.1263  1.7606
 1700SOL    HW2 5161   0.775   4.091   4.067  0.4176 -0.8763  0.4607
 1701SOL     OW 5162   0.107   5.052   1.500  0.3221 -0.2466  0.7063
 1701SOL    HW1 5163   0.111   4.959   1.478 -0.6513  0.1390 -1.3206
 1701SOL    HW2 5164   0.053   5.056   1.579 -3.8592 -1.1623 -1.7772
 1702SOL     OW 5165   4.356   4.815   1.887  0.9235  0.3102  0.2677
 1702SOL    HW1 5166   4.404   4.892   1.920 -0.6517  1.3559  0.2347
 1702SOL    HW2 5167   4.380   4.810   1.794  2.8602 -0.7034  0.7615
 1703SOL     OW 5168   1.548   0.080   0.595  0.1110 -0.0149  0.0408
 1703SOL    HW1 5169   1.517   0.018   0.662  0.2262  0.3873  0.4710
 1703SOL    HW2 5170   1.472   0.135   0.576  0.1220 -0.0306 -0.0519
 1704SOL     OW 5171   3.665   4.200   2.593  0.0680  0.0907 -0.3131
 1704SOL    HW1 5172   3.612   4.162   2.523 -0.8232 -0.8122  0.7991
 1704SOL    HW2 5173   3.602   4.225   2.660  0.7957  2.0197 -0.2806
 1705SOL     OW 5174   3.074   3.556   3.885 -0.0669 -0.3692  0.5881
 1705SOL    HW1 5175   3.129   3.547   3.806  1.0823 -1.4756  1.4675
 1705SOL    HW2 5176   3.096   3.642   3.920 -2.6349  1.4267 -1.7076
 1706SOL     OW 5177   5.141   1.016   1.641  0.2527 -0.5501  0.5178
 1706SOL    HW1 5178   5.228   1.047   1.616 -0.5428  2.1991  0.8579
 1706SOL    HW2 5179   5.100   0.989   1.558  0.3470  1.1467 -0.1079
 1707SOL     OW 5180   1.457   3.178   4.157  0.6822  0.1905 -0.0808
 1707SOL    HW1 5181   1.403   3.118   4.209  1.7333  0.5863  1.5314
 1707SOL    HW2 5182   1.394   3.234   4.112 -0.2831  0.0166  0.9998
 1708SOL     OW 5183   3.968   4.369   2.868  0.0171  0.1096  0.0064
 1708SOL    HW1 5184   3.957   4.312   2.792 -1.0716  0.7932 -0.3745
 1708SOL    HW2 5185   3.893   4.428   2.864 -0.7816 -0.6382  2.3197
 1709SOL     OW 5186   2.305   3.709   1.383  0.3403 -0.0810 -0.0487
 1709SOL    HW1 5187   2.220   3.667   1.399 -0.0633  0.5146 -0.5534
 1709SOL    HW2 5188   2.318   3.765   1.460  0.0963  0.1055 -0.1399
 1710SOL     OW 5189   2.867   3.813   3.352 -0.0434  0.2826 -0.1405
 1710SOL    HW1 5190   2.920   3.752   3.403  0.6578  0.4146 -0.6946
 1710SOL    HW2 5191   2.930   3.872   3.311 -0.7205  1.6513  0.6952
 1711SOL     OW 5192   4.808   2.140   2.309  0.1048  0.1197  0.0934
 1711SOL    HW1 5193   4.763   2.154   2.392  0.0257 -0.1957  0.1034
 1711SOL    HW2 5194   4.825   2.046   2.306  1.4479  0.3314  0.4417
 1712SOL     OW 5195   5.192   0.044   0.566 -0.0862  0.0935 -0.8658
 1712SOL    HW1 5196   5.263   0.100   0.597  0.0916  0.5727 -2.1065
 1712SOL    HW2 5197   5.112   0.090   0.591 -0.0165 -0.7080  1.0194
 1713SOL     OW 5198   3.573   0.877   0.540  0.5403  0.0049 -0.9508
 1713SOL    HW1 5199   3.497   0.934   0.538 -0.6757 -1.5660 -2.1823
 1713SOL    HW2 5200   3.577   0.845   0.630  1.4070  2.1319 -0.1672
 1714SOL     OW 5201   3.599   1.070   2.443 -0.3647  0.3656  0.3880
 1714SOL    HW1 5202   3.517   1.068   2.394  0.3891 -0.1422 -0.8910
 1714SOL    HW2 5203   3.609   0.982   2.477  0.5474 -0.1106 -1.0330
 1715SOL     OW 5204   2.052   3.287   4.290  0.4333 -0.2654 -0.3041
 1715SOL    HW1 5205   2.108   3.332   4.354 -0.6207 -0.3814  0.7385
 1715SOL    HW2 5206   1.964   3.317   4.310  0.1235  0.0297 -2.0286
 1716SOL     OW 5207   3.859   3.272   2.462 -0.0842 -0.0709  0.2316
 1716SOL    HW1 5208   3.931   3.208   2.462 -0.5900 -0.6587 -0.7045
 1716SOL    HW2 5209   3.828   3.274   2.553  1.6924  0.8773  0.8678
 1717SOL     OW 5210   2.452   1.634   0.843  0.2309  0.4453  0.0393
 1717SOL    HW1 5211   2.365   1.653   0.879  0.8857  2.0516  0.8977
 1717SOL    HW2 5212   2.504   1.609   0.919  0.7320  0.2862 -0.3526
 1718SOL     OW 5213   0.242   1.682   3.368  0.2811  0.4066 -0.1578
 1718SOL    HW1 5214   0.324   1.663   3.321  0.3092 -0.3979  0.1954
 1718SOL    HW2 5215   0.221   1.600   3.412 -0.5470  0.7114  0.0223
 1719SOL     OW 5216   1.300   2.466   4.256  0.0113 -0.4598  0.2157
 1719SOL    HW1 5217   1.265   2.403   4.319  0.8223  0.2634  1.4414
 1719SOL    HW2 5218   1.374   2.421   4.216 -0.3905 -0.8564 -0.0842
 1720SOL     OW 5219   4.743   4.096   0.911  0.2274  0.4943 -0.1972
 1720SOL    HW1 5220   4.648   4.106   0.906 -0.4516 -3.2477  1.5246
 1720SOL    HW2 5221   4.778   4.172   0.864 -3.5654  1.9302 -1.0599
 1721SOL     OW 5222   3.724   0.934   1.872  0.2257  0.3917 -0.0293
 1721SOL    HW1 5223   3.717   1.030   1.873 -0.9302  0.3289 -0.4307
 1721SOL    HW2 5224   3.763   0.912   1.956  1.1989  1.2593 -0.2319
 1722SOL     OW 5225   2.281   1.769   1.725  0.5075  0.1080  0.1141
 1722SOL    HW1 5226   2.312   1.846   1.677  0.2402  0.0937 -0.0854
 1722SOL    HW2 5227   2.268   1.703   1.657  0.7773 -0.1291  0.2897
 1723SOL     OW 5228   4.762   3.846   4.084 -0.8559  1.0534 -0.0159
 1723SOL    HW1 5229   4.674   3.810   4.071  0.2487 -1.6792 -0.4292
 1723SOL    HW2 5230   4.780   3.833   4.177 -0.8182  1.5055  0.0430
 1724SOL     OW 5231   2.745   0.336   1.915  0.3443 -0.1898 -0.6120
 1724SOL    HW1 5232   2.776   0.404   1.974 -1.2376  0.5727 -0.6108
 1724SOL    HW2 5233   2.774   0.364   1.828 -1.3792  1.2132 -0.7893
 1725SOL     OW 5234   4.615   4.761   3.597  0.0424  0.5709  0.0415
 1725SOL    HW1 5235   4.690   4.820   3.584  0.4026  0.2748  0.7125
 1725SOL    HW2 5236   4.543   4.819   3.622  0.1590  0.8161 -0.1835
 1726SOL     OW 5237   1.209   2.580   3.654 -0.4980  0.0535 -0.0367
 1726SOL    HW1 5238   1.198   2.663   3.607  1.2574 -0.2946 -1.1442
 1726SOL    HW2 5239   1.301   2.577   3.678 -0.7291 -1.1619  0.8309
 1727SOL     OW 5240   0.425   0.137   2.368  0.1472 -0.4045  0.1274
 1727SOL    HW1 5241   0.332   0.118   2.361  0.2806 -1.1283  0.1704
 1727SOL    HW2 5242   0.453   0.155   2.278 -0.0482 -0.0907  0.1281
 1728SOL     OW 5243   2.740   2.593   2.878 -0.3334 -0.2056  0.1933
 1728SOL    HW1 5244   2.736   2.653   2.953 -0.8041  1.6970 -1.2670
 1728SOL    HW2 5245   2.765   2.649   2.804 -0.9368 -1.8084 -1.2895
 1729SOL     OW 5246   2.928   3.099   1.048  0.0846  0.5363  0.2073
 1729SOL    HW1 5247   2.918   3.194   1.046 -0.1073  0.5114 -0.2113
 1729SOL    HW2 5248   2.952   3.076   0.958 -0.9295  0.0754  0.0432
 1730SOL     OW 5249   1.361   3.679   1.008 -0.7177  0.2755 -0.3553
 1730SOL    HW1 5250   1.281   3.629   0.995 -0.8802 -0.1043  1.7924
 1730SOL    HW2 5251   1.403   3.680   0.922 -2.2566 -0.8370 -1.1567
 1731SOL     OW 5252   1.983   0.856   2.147  0.7926 -0.2352 -0.0331
 1731SOL    HW1 5253   1.955   0.774   2.187 -0.1019  0.6570  1.2560
 1731SOL    HW2 5254   2.040   0.829   2.075 -0.0703 -1.9974 -0.1182
 1732SOL     OW 5255   1.148   4.931   1.935  0.2296  0.0325  0.3509
 1732SOL    HW1 5256   1.160   4.993   2.006 -1.1524 -0.0395  0.6819
 1732SOL    HW2 5257   1.189   4.850   1.966 -2.0304 -0.5872  1.9464
 1733SOL     OW 5258   2.545   4.765   0.238 -0.1743 -0.1870 -0.4805
 1733SOL    HW1 5259   2.625   4.750   0.288 -0.5339  1.3227  0.6452
 1733SOL    HW2 5260   2.568   4.741   0.148  1.5887  0.2930 -0.2112
 1734SOL     OW 5261   4.326   2.125   3.543  0.3956 -0.0646  0.5256
 1734SOL    HW1 5262   4.393   2.145   3.478  0.8019 -3.5121 -0.3247
 1734SOL    HW2 5263   4.373   2.127   3.627  0.8202  0.5188  0.2813
 1735SOL     OW 5264   2.619   4.066   4.366  0.7748 -0.1778  0.1510
 1735SOL    HW1 5265   2.602   4.004   4.295 -1.2569  0.6786 -0.1662
 1735SOL    HW2 5266   2.714   4.081   4.361  2.5374 -6.6211  3.1673
 1736SOL     OW 5267   4.808   1.420   3.156  0.2353 -0.8813  0.1231
 1736SOL    HW1 5268   4.802   1.516   3.150 -0.3660 -0.9145  0.1880
 1736SOL    HW2 5269   4.724   1.392   3.191  0.0760 -1.5084 -0.7281
 1737SOL     OW 5270   4.400   2.081   4.409 -0.0001 -0.0945 -0.2654
 1737SOL    HW1 5271   4.344   2.150   4.375  1.1661  1.1679  0.3134
 1737SOL    HW2 5272   4.354   2.000   4.386 -2.5937  0.8875  1.0806
 1738SOL     OW 5273   4.430   4.812   4.134 -0.2193 -0.1558  0.1254
 1738SOL    HW1 5274   4.372   4.847   4.201  0.7361  0.7941  0.4877
 1738SOL    HW2 5275   4.516   4.850   4.154  0.0994  0.1399 -1.6208
 1739SOL     OW 5276   3.190   4.465   2.074  0.0900 -0.1556  0.0684
 1739SOL    HW1 5277   3.162   4.435   2.160  1.4120  0.8650  0.8807
 1739SOL    HW2 5278   3.264   4.524   2.091  2.5271 -2.3881 -1.9100
 1740SOL     OW 5279   0.347   1.923   3.132  0.1054 -0.3916 -0.5078
 1740SOL    HW1 5280   0.377   1.921   3.223 -0.7576  0.0330 -0.2074
 1740SOL    HW2 5281   0.352   2.016   3.108  0.5003 -0.5247 -0.9576
 1741SOL     OW 5282   4.219   2.891   0.064 -0.2840  0.0882 -0.4485
 1741SOL    HW1 5283   4.297   2.943   0.083 -0.1287 -0.2390 -0.1766
 1741SOL    HW2 5284   4.251   2.817   0.013 -0.1011 -1.0477  1.2158
 1742SOL     OW 5285   0.970   0.472   0.277 -0.8874 -0.5718  0.2246
 1742SOL    HW1 5286   0.905   0.523   0.326 -1.0877 -0.2260 -0.3995
 1742SOL    HW2 5287   1.050   0.525   0.281 -0.7514 -0.8041  0.6421
 1743SOL     OW 5288   5.303   3.365   0.869 -0.2340 -0.7165 -0.4885
 1743SOL    HW1 5289   5.348   3.298   0.921  2.6530  0.1427 -1.6738
 1743SOL    HW2 5290   5.318   3.447   0.917  0.3542 -0.2640 -1.4239
 1744SOL     OW 5291   0.574   2.832   1.942 -0.0333  0.6489  0.0210
 1744SOL    HW1 5292   0.588   2.897   1.873  0.2689  0.6857  0.1179
 1744SOL    HW2 5293   0.507   2.773   1.905 -1.0701  1.5911  0.3407
 1745SOL     OW 5294   0.617   0.431   1.142 -0.0185 -0.0236  0.2714
 1745SOL    HW1 5295   0.530   0.406   1.173  0.4883 -3.0782 -0.4339
 1745SOL    HW2 5296   0.600   0.491   1.069 -1.4857  0.3616  0.9079
 1746SOL     OW 5297   4.934   4.091   4.113 -0.6082  0.5375  0.4430
 1746SOL    HW1 5298   4.889   4.013   4.079 -1.4168  1.7289 -1.4215
 1746SOL    HW2 5299   4.974   4.130   4.036  2.2296  0.5064  1.7803
 1747SOL     OW 5300   4.198   1.831   2.695 -0.1677 -0.1673  0.3568
 1747SOL    HW1 5301   4.133   1.856   2.760 -0.6028 -0.9975  0.2608
 1747SOL    HW2 5302   4.177   1.884   2.618 -0.9994 -0.7125  0.1910
 1748SOL     OW 5303   2.871   3.550   3.220  0.3824 -0.2596 -0.3147
 1748SOL    HW1 5304   2.820   3.478   3.257  2.6051 -0.9978  1.5068
 1748SOL    HW2 5305   2.842   3.627   3.269  0.4022 -0.5146  0.1051
 1749SOL     OW 5306   0.076   4.601   1.076 -0.6285 -0.2269 -0.3206
 1749SOL    HW1 5307   0.009   4.613   1.008 -0.2121  1.3963 -0.4943
 1749SOL    HW2 5308   0.122   4.685   1.079 -1.3081  0.1707  2.7107
 1750SOL     OW 5309   2.573   3.566   3.298  0.1387  0.4430 -0.2268
 1750SOL    HW1 5310   2.536   3.594   3.381 -0.1077  2.2971 -0.9010
 1750SOL    HW2 5311   2.539   3.629   3.234  2.6412  0.9013 -1.2337
 1751SOL     OW 5312   3.568   2.272   4.028 -0.3350 -0.2580 -0.3443
 1751SOL    HW1 5313   3.490   2.289   4.081 -0.2790 -2.8877  0.7668
 1751SOL    HW2 5314   3.642   2.292   4.085 -0.2088  0.4436 -0.7452
 1752SOL     OW 5315   4.381   0.710   0.660  0.5798  0.3318 -0.0182
 1752SOL    HW1 5316   4.291   0.739   0.674 -0.1223 -2.4658  2.0624
 1752SOL    HW2 5317   4.434   0.770   0.712 -0.3271  0.5663  0.6494
 1753SOL     OW 5318   4.748   2.670   1.753  0.0830  0.4351 -0.2313
 1753SOL    HW1 5319   4.782   2.650   1.840  2.5472 -0.9304 -1.3851
 1753SOL    HW2 5320   4.654   2.679   1.765  0.6199  4.5934  3.3052
 1754SOL     OW 5321   3.033   2.640   0.832 -0.4232 -0.3123 -0.1507
 1754SOL    HW1 5322   3.064   2.714   0.883 -1.8777  2.0484 -2.4245
 1754SOL    HW2 5323   3.091   2.637   0.756 -1.0107 -0.8277 -0.5893
 1755SOL     OW 5324   3.268   1.637   3.273 -0.1941 -0.6020  0.7951
 1755SOL    HW1 5325   3.230   1.552   3.294 -1.1022 -0.3453  0.2822
 1755SOL    HW2 5326   3.227   1.698   3.335 -0.2231 -0.4045  0.5862
 1756SOL     OW 5327   4.052   2.481   0.389 -0.0214  0.1135  0.2050
 1756SOL    HW1 5328   3.964   2.471   0.425 -0.3004  1.2670 -0.0867
 1756SOL    HW2 5329   4.102   2.524   0.459  0.5044 -1.0988  0.6051
 1757SOL     OW 5330   3.566   4.418   2.099 -0.0381 -0.7085 -0.5143
 1757SOL    HW1 5331   3.502   4.481   2.065  1.6400  0.9209 -0.8379
 1757SOL    HW2 5332   3.552   4.418   2.193 -0.5552 -0.4391 -0.5870
 1758SOL     OW 5333   5.219   3.743   1.242  0.2638 -0.6986  0.3480
 1758SOL    HW1 5334   5.183   3.675   1.298 -1.8814  0.1358  0.0938
 1758SOL    HW2 5335   5.300   3.771   1.286  0.2344 -2.1297  1.3795
 1759SOL     OW 5336   5.249   1.049   4.333 -0.4010  0.4050  0.1053
 1759SOL    HW1 5337   5.326   1.010   4.376  0.3349  0.1287 -1.3939
 1759SOL    HW2 5338   5.178   1.034   4.395  0.8151  1.0425  1.7387
 1760SOL     OW 5339   3.175   4.927   0.139 -0.1710 -0.2267  0.0070
 1760SOL    HW1 5340   3.264   4.952   0.113  0.9135 -1.6823  2.0820
 1760SOL    HW2 5341   3.136   4.891   0.059  0.9686  0.7513 -1.0193
 1761SOL     OW 5342   4.108   3.395   2.965  0.1749 -0.6251  0.5457
 1761SOL    HW1 5343   4.081   3.324   2.907  0.7906  0.9415 -1.7733
 1761SOL    HW2 5344   4.048   3.389   3.040 -1.4668 -1.9652 -0.8102
 1762SOL     OW 5345   1.820   1.148   0.723  0.1814  0.1834  0.1130
 1762SOL    HW1 5346   1.800   1.067   0.675  0.0531 -0.4014  1.1420
 1762SOL    HW2 5347   1.750   1.209   0.697  0.4311  0.0701 -0.8764
 1763SOL     OW 5348   1.471   2.566   0.043 -0.2421  0.2583  0.6129
 1763SOL    HW1 5349   1.447   2.478   0.070 -1.8005  0.3441 -0.3659
 1763SOL    HW2 5350   1.403   2.622   0.080  0.8784  1.1107  1.4517
 1764SOL     OW 5351   0.793   0.647   2.319  0.1405  0.5585  0.3204
 1764SOL    HW1 5352   0.774   0.583   2.388  1.0482 -1.7957 -1.4543
 1764SOL    HW2 5353   0.708   0.661   2.276  0.3804 -2.2353 -1.3733
 1765SOL     OW 5354   4.559   0.869   4.039 -0.6773 -0.2679  0.0663
 1765SOL    HW1 5355   4.553   0.796   3.977 -1.2550 -1.9075  1.9661
 1765SOL    HW2 5356   4.610   0.835   4.112 -0.5238  1.4133  0.7970
 1766SOL     OW 5357   2.527   1.056   1.035 -0.8843  0.0146  0.0334
 1766SOL    HW1 5358   2.533   1.106   1.116  0.0855 -0.3966  0.2307
 1766SOL    HW2 5359   2.618   1.047   1.005 -1.1703 -0.3978 -0.7549
 1767SOL     OW 5360   1.852   2.225   1.878 -0.1736  0.4831 -0.5262
 1767SOL    HW1 5361   1.779   2.287   1.877 -1.3411 -0.8278  0.0605
 1767SOL    HW2 5362   1.876   2.217   1.970 -1.7840 -1.8143 -0.1985
 1768SOL     OW 5363   4.744   4.191   2.358  0.3296  0.2482 -0.2932
 1768SOL    HW1 5364   4.727   4.186   2.452  1.5788  0.7367 -0.0303
 1768SOL    HW2 5365   4.823   4.139   2.344 -0.9106 -1.4477 -1.3969
 1769SOL     OW 5366   3.719   1.823   1.764 -0.2651  0.4069  0.6353
 1769SOL    HW1 5367   3.624   1.818   1.750 -0.4545  0.2444  1.8435
 1769SOL    HW2 5368   3.757   1.798   1.680 -1.2942 -0.8546  0.5208
 1770SOL     OW 5369   3.443   1.158   1.292 -0.4882  0.1301  0.3048
 1770SOL    HW1 5370   3.425   1.165   1.386  0.1422  0.0447  0.4375
 1770SOL    HW2 5371   3.357   1.169   1.250 -0.6492  1.0221  0.8455
 1771SOL     OW 5372   2.013   1.264   2.052 -0.3478  0.4200 -0.2229
 1771SOL    HW1 5373   1.996   1.341   2.107  0.1596 -0.7714  1.6848
 1771SOL    HW2 5374   1.955   1.196   2.087  1.3051 -0.9035  0.0554
 1772SOL     OW 5375   3.478   2.065   2.970  0.1005  0.0978 -0.1549
 1772SOL    HW1 5376   3.497   2.099   3.058  2.4693 -2.3653  0.4291
 1772SOL    HW2 5377   3.538   2.113   2.913  0.6023 -0.2853  0.0414
 1773SOL     OW 5378   2.324   3.995   0.323 -0.4578  0.0396  0.8913
 1773SOL    HW1 5379   2.386   4.060   0.357  1.9409 -1.3703 -0.5217
 1773SOL    HW2 5380   2.377   3.937   0.268 -3.1712 -0.9310 -0.9111
 1774SOL     OW 5381   1.525   1.803   0.405  0.0743 -0.3928  0.1986
 1774SOL    HW1 5382   1.455   1.781   0.466  0.6864 -0.8132  0.7547
 1774SOL    HW2 5383   1.479   1.825   0.324 -0.7529  0.3898  0.8606
 1775SOL     OW 5384   2.512   4.227   0.554  0.0474  0.1200 -0.0290
 1775SOL    HW1 5385   2.575   4.269   0.495  0.0372  2.2263  1.3454
 1775SOL    HW2 5386   2.464   4.300   0.593 -0.3519 -1.2073  2.1303
 1776SOL     OW 5387   0.489   3.159   4.351  0.4860  0.1905 -0.2784
 1776SOL    HW1 5388   0.448   3.230   4.301 -0.4446 -1.5760 -2.1925
 1776SOL    HW2 5389   0.425   3.087   4.346  0.4766 -0.2310  3.2733
 1777SOL     OW 5390   2.807   0.539   3.916 -0.5523 -0.1992  0.4355
 1777SOL    HW1 5391   2.890   0.524   3.962  0.9208  0.6262 -1.8121
 1777SOL    HW2 5392   2.741   0.499   3.973  1.4863 -1.9451  1.7357
 1778SOL     OW 5393   4.785   0.226   2.249 -0.2397 -0.2569 -0.7686
 1778SOL    HW1 5394   4.841   0.296   2.214 -2.6929  2.3840  0.1755
 1778SOL    HW2 5395   4.727   0.204   2.177 -0.7233  0.0960 -0.4917
 1779SOL     OW 5396   4.635   0.506   2.220 -0.0038  0.8049  0.3061
 1779SOL    HW1 5397   4.552   0.502   2.267  0.5346  1.6415  1.3580
 1779SOL    HW2 5398   4.612   0.483   2.130 -0.8218 -2.3040  1.1831
 1780SOL     OW 5399   5.149   1.047   0.251  0.3772  0.4408  0.3577
 1780SOL    HW1 5400   5.109   1.064   0.166  1.4191  1.1165 -0.0289
 1780SOL    HW2 5401   5.192   0.962   0.241  0.0723  0.2848  0.3742
 1781SOL     OW 5402   1.755   2.632   4.374  0.0973 -0.3678  0.1005
 1781SOL    HW1 5403   1.670   2.608   4.411  0.0201 -1.4995 -0.7604
 1781SOL    HW2 5404   1.770   2.568   4.304  1.2523  0.3576 -0.3480
 1782SOL     OW 5405   4.461   3.048   2.304 -0.1631 -0.3490  0.0860
 1782SOL    HW1 5406   4.548   3.017   2.279 -0.6679 -1.5804 -0.2319
 1782SOL    HW2 5407   4.452   3.022   2.396 -0.1163 -0.0192  0.1857
 1783SOL     OW 5408   1.901   0.644   0.543 -0.0328 -0.2814  0.2397
 1783SOL    HW1 5409   1.992   0.632   0.515 -0.0202  1.4654 -0.6170
 1783SOL    HW2 5410   1.905   0.713   0.609 -0.6670 -0.7346  0.7660
 1784SOL     OW 5411   3.259   2.965   3.017 -0.7650  0.1504 -0.0648
 1784SOL    HW1 5412   3.205   3.041   3.035 -1.4052 -0.4484  0.5754
 1784SOL    HW2 5413   3.197   2.893   3.004 -0.2234 -0.0742 -1.7257
 1785SOL     OW 5414   2.538   1.264   3.159 -0.5297 -0.2512 -0.0464
 1785SOL    HW1 5415   2.510   1.210   3.085 -0.2175 -1.1392  0.4631
 1785SOL    HW2 5416   2.562   1.348   3.121 -3.5769  0.5113 -0.5816
 1786SOL     OW 5417   2.746   3.081   2.604 -0.3583 -0.2175  0.4215
 1786SOL    HW1 5418   2.748   3.080   2.508  1.5145  0.8785  0.3917
 1786SOL    HW2 5419   2.658   3.053   2.626 -0.6146 -1.2449 -1.5990
 1787SOL     OW 5420   2.759   5.024   0.826  0.3014  0.1674 -0.2241
 1787SOL    HW1 5421   2.739   5.019   0.732 -0.8098  1.2574 -0.0703
 1787SOL    HW2 5422   2.674   5.039   0.867  0.9509  1.0097  0.8496
 1788SOL     OW 5423   4.141   3.638   2.842 -0.2247 -0.1522  0.4136
 1788SOL    HW1 5424   4.172   3.612   2.755 -0.1003 -0.2034  0.4734
 1788SOL    HW2 5425   4.147   3.559   2.895  0.8362  0.1638  0.7829
 1789SOL     OW 5426   2.381   1.478   0.229 -0.0996 -0.3961 -0.1936
 1789SOL    HW1 5427   2.352   1.546   0.168  1.1966  1.2601  0.9320
 1789SOL    HW2 5428   2.313   1.475   0.296 -0.4830 -0.7118 -0.5870
 1790SOL     OW 5429   2.556   5.025   0.986  0.7278 -0.1630  0.0023
 1790SOL    HW1 5430   2.469   5.005   1.022 -1.2324  2.3104 -2.8147
 1790SOL    HW2 5431   2.599   5.074   1.056 -1.1485  0.6749  0.6514
 1791SOL     OW 5432   0.153   2.583   2.636 -0.6228 -0.3051  0.2314
 1791SOL    HW1 5433   0.154   2.642   2.561  0.0318 -0.1124  0.3942
 1791SOL    HW2 5434   0.231   2.529   2.626 -0.4161 -0.1412  0.8784
 1792SOL     OW 5435   2.067   1.876   2.962 -0.0495  0.4409 -0.2362
 1792SOL    HW1 5436   2.057   1.798   3.016 -1.7627 -0.3789 -1.6722
 1792SOL    HW2 5437   2.017   1.944   3.008  1.5645  0.8188  1.0898
 1793SOL     OW 5438   5.254   0.637   1.664 -0.1748  0.2804  0.5383
 1793SOL    HW1 5439   5.326   0.677   1.713  1.2315  0.5557 -1.6120
 1793SOL    HW2 5440   5.256   0.680   1.578 -0.8638 -1.9176 -0.6662
 1794SOL     OW 5441   3.170   1.346   3.242  0.2899  0.2597  0.3853
 1794SOL    HW1 5442   3.187   1.375   3.152 -2.7233  1.1585  0.0062
 1794SOL    HW2 5443   3.120   1.265   3.232 -0.3480  0.5378  1.2347
 1795SOL     OW 5444   2.659   4.120   0.761 -0.5161  0.2932 -0.0548
 1795SOL    HW1 5445   2.627   4.030   0.759  0.7851 -0.1956  0.5264
 1795SOL    HW2 5446   2.596   4.168   0.707 -0.5387 -1.1840 -1.4372
 1796SOL     OW 5447   5.251   3.821   1.697 -0.4072  0.6088 -0.3039
 1796SOL    HW1 5448   5.235   3.866   1.780 -0.8656 -0.4411  0.1991
 1796SOL    HW2 5449   5.176   3.846   1.642 -0.4216  0.8228 -0.1890
 1797SOL     OW 5450   3.435   5.013   0.075  0.0528  0.6353  0.2611
 1797SOL    HW1 5451   3.495   4.940   0.089 -1.2213 -0.4307  0.3991
 1797SOL    HW2 5452   3.488   5.091   0.087  1.5061 -0.2646 -0.0844
 1798SOL     OW 5453   0.264   1.444   3.522 -0.5656  0.0986  0.6041
 1798SOL    HW1 5454   0.234   1.481   3.605  0.1961 -2.9931  2.4090
 1798SOL    HW2 5455   0.251   1.350   3.531 -0.7606 -0.3613 -2.9876
 1799SOL     OW 5456   3.427   3.698   2.572  0.3687  0.1097 -0.1555
 1799SOL    HW1 5457   3.520   3.722   2.574  0.6547 -0.9714  0.9486
 1799SOL    HW2 5458   3.386   3.761   2.632  0.6282 -0.2618  0.4250
 1800SOL     OW 5459   1.996   0.452   3.364  0.2577 -0.0066  0.0014
 1800SOL    HW1 5460   2.030   0.522   3.420  1.1309 -1.2917  1.1483
 1800SOL    HW2 5461   1.927   0.494   3.312  0.0189  1.4514  1.4092
 1801SOL     OW 5462   3.919   4.111   0.206 -0.0695 -0.0428 -0.0518
 1801SOL    HW1 5463   3.931   4.092   0.113  0.9686  0.0247  0.0479
 1801SOL    HW2 5464   3.994   4.069   0.248  0.2247  1.0798  0.5935
 1802SOL     OW 5465   2.638   2.010   2.677  0.0656 -0.1097  0.0815
 1802SOL    HW1 5466   2.706   2.078   2.682  0.0018  0.2367 -2.5023
 1802SOL    HW2 5467   2.637   1.971   2.764  2.1130  1.2931  0.8081
 1803SOL     OW 5468   4.025   2.185   2.962 -0.3890 -0.2449  0.5648
 1803SOL    HW1 5469   3.948   2.171   3.016  0.4577 -0.0742  1.8607
 1803SOL    HW2 5470   4.099   2.167   3.020  0.5630  0.3189 -0.4283
 1804SOL     OW 5471   3.764   2.809   3.080  0.4306 -0.0569 -0.9517
 1804SOL    HW1 5472   3.701   2.871   3.043  0.4461  1.0187  0.7508
 1804SOL    HW2 5473   3.734   2.723   3.048 -2.1863  0.3442  0.1468
 1805SOL     OW 5474   3.412   4.745   3.030 -0.1690 -0.6000 -0.3792
 1805SOL    HW1 5475   3.472   4.732   2.957  0.4676  1.6551 -0.3286
 1805SOL    HW2 5476   3.360   4.821   3.005  0.5171  0.6559  1.7542
 1806SOL     OW 5477   5.278   1.191   0.447  0.4316 -0.4297 -0.6446
 1806SOL    HW1 5478   5.284   1.125   0.377  0.7490  0.4786 -1.5054
 1806SOL    HW2 5479   5.212   1.253   0.415  0.1085 -0.3365  0.1708
 1807SOL     OW 5480   2.017   3.371   0.861 -0.2916 -0.0439  0.3487
 1807SOL    HW1 5481   1.924   3.356   0.876 -0.2426 -0.4963  0.2387
 1807SOL    HW2 5482   2.021   3.436   0.791 -0.5465 -1.4018 -0.9807
 1808SOL     OW 5483   3.809   3.256   0.348 -0.2030 -0.8789 -0.0735
 1808SOL    HW1 5484   3.738   3.311   0.317  0.2895  1.0208  1.9284
 1808SOL    HW2 5485   3.766   3.184   0.394 -0.8357 -0.0089  0.7036
 1809SOL     OW 5486   4.759   4.460   0.551  0.0352 -0.6498  0.0110
 1809SOL    HW1 5487   4.774   4.535   0.609 -1.9652 -0.6728  0.6539
 1809SOL    HW2 5488   4.728   4.499   0.469 -0.4971 -0.7266  0.1685
 1810SOL     OW 5489   3.935   3.530   3.222 -0.1131 -0.2436 -0.0990
 1810SOL    HW1 5490   3.998   3.596   3.251  1.3758 -1.7618  0.3136
 1810SOL    HW2 5491   3.916   3.553   3.131  0.8879  0.3685 -0.1711
 1811SOL     OW 5492   4.982   1.949   1.857  0.1548  0.5721  0.5505
 1811SOL    HW1 5493   4.975   1.916   1.946 -0.0910  0.5805  0.5362
 1811SOL    HW2 5494   4.979   2.044   1.866  1.0688  0.5998  0.6085
 1812SOL     OW 5495   2.928   1.756   2.908  0.4050 -0.2242 -0.0786
 1812SOL    HW1 5496   2.952   1.707   2.987  1.8449 -0.4739 -0.6458
 1812SOL    HW2 5497   2.947   1.847   2.931 -0.2896 -0.1618  0.2605
 1813SOL     OW 5498   2.533   2.125   3.561  0.4692  0.1414 -0.1513
 1813SOL    HW1 5499   2.524   2.060   3.632  0.9233 -0.7263 -0.8656
 1813SOL    HW2 5500   2.446   2.163   3.552  0.3547  0.1143  0.7312
 1814SOL     OW 5501   3.654   4.349   3.093  0.4618  0.1051  0.2344
 1814SOL    HW1 5502   3.586   4.390   3.148  0.5945  3.0785 -1.6000
 1814SOL    HW2 5503   3.736   4.376   3.133  0.5430  1.2789 -0.6587
 1815SOL     OW 5504   0.104   0.384   4.107 -0.0105  0.3211  0.3972
 1815SOL    HW1 5505   0.133   0.373   4.197  2.3708  0.7440 -0.2345
 1815SOL    HW2 5506   0.048   0.308   4.090  1.2722 -0.9490  1.5846
 1816SOL     OW 5507   5.276   4.339   1.121  0.3195 -0.2925  0.0827
 1816SOL    HW1 5508   5.364   4.364   1.148  0.9169 -0.6207 -1.4935
 1816SOL    HW2 5509   5.228   4.422   1.117  0.9822  0.0698 -0.5136
 1817SOL     OW 5510   1.250   2.460   3.928  0.1615 -0.5064  0.2415
 1817SOL    HW1 5511   1.223   2.513   4.003  3.1148  0.3842  0.8089
 1817SOL    HW2 5512   1.212   2.505   3.852  1.7822  2.0374  0.7886
 1818SOL     OW 5513   1.526   3.517   0.471  0.0905 -0.3956 -0.4515
 1818SOL    HW1 5514   1.448   3.573   0.461  1.5050  1.7322 -0.3111
 1818SOL    HW2 5515   1.509   3.443   0.413 -1.8851  0.1913 -0.7069
 1819SOL     OW 5516   4.150   4.397   1.759  0.2117 -0.2673  0.3730
 1819SOL    HW1 5517   4.168   4.413   1.852 -0.4894 -2.9912  1.0852
 1819SOL    HW2 5518   4.100   4.315   1.759  1.7596 -1.3408 -2.5230
 1820SOL     OW 5519   0.973   1.453   2.399  0.2599  0.1814 -0.2490
 1820SOL    HW1 5520   0.962   1.521   2.333  1.7337 -0.9758 -1.7509
 1820SOL    HW2 5521   0.966   1.371   2.351 -2.9556 -0.9013  1.7371
 1821SOL     OW 5522   3.254   2.935   1.234 -0.1607 -0.2494  0.7104
 1821SOL    HW1 5523   3.184   3.001   1.239  1.2499  1.5362 -1.4789
 1821SOL    HW2 5524   3.284   2.926   1.325 -1.7838  0.5122  1.3681
 1822SOL     OW 5525   0.539   2.822   0.766 -0.1605 -0.4158 -0.7658
 1822SOL    HW1 5526   0.525   2.760   0.694  0.5400 -0.4396 -0.8842
 1822SOL    HW2 5527   0.469   2.802   0.828 -0.0091 -1.2608 -0.8518
 1823SOL     OW 5528   1.066   3.980   1.190 -0.0555 -0.2948  0.0405
 1823SOL    HW1 5529   1.151   3.989   1.147 -0.2898  0.0670 -0.3594
 1823SOL    HW2 5530   1.005   4.025   1.131 -0.8099 -1.9904 -0.5601
 1824SOL     OW 5531   1.695   1.262   0.147  0.1191  0.3113 -0.4785
 1824SOL    HW1 5532   1.758   1.235   0.080 -3.2748  0.9568 -4.4038
 1824SOL    HW2 5533   1.732   1.342   0.184  2.2889 -0.1690 -1.4815
 1825SOL     OW 5534   2.169   0.587   3.207 -0.9713 -0.3480 -0.6647
 1825SOL    HW1 5535   2.122   0.520   3.256  0.5813 -0.4410  0.8068
 1825SOL    HW2 5536   2.203   0.541   3.130 -1.2833 -0.8507 -0.5075
 1826SOL     OW 5537   2.397   4.596   2.674 -0.1002  0.5191 -0.1416
 1826SOL    HW1 5538   2.321   4.645   2.706 -0.7558 -1.0930  0.8609
 1826SOL    HW2 5539   2.379   4.505   2.698  1.2262 -0.1953 -1.6784
 1827SOL     OW 5540   5.356   0.233   0.726 -0.2218  0.4655 -0.1309
 1827SOL    HW1 5541   5.418   0.275   0.785 -0.5430 -0.6840  1.0567
 1827SOL    HW2 5542   5.278   0.289   0.730  0.2228  1.1354 -0.5480
 1828SOL     OW 5543   1.365   0.225   2.560  0.4964  0.1652 -0.2532
 1828SOL    HW1 5544   1.302   0.294   2.539  1.3119  1.3479  1.0182
 1828SOL    HW2 5545   1.439   0.241   2.501  0.5449  0.1756 -0.1903
 1829SOL     OW 5546   1.657   5.004   1.841  0.1888 -0.4767 -0.2905
 1829SOL    HW1 5547   1.634   5.082   1.790  1.5135  0.2508  0.1797
 1829SOL    HW2 5548   1.595   5.006   1.915  0.6367  0.5240  0.0772
 1830SOL     OW 5549   5.250   1.540   3.075  0.0234 -0.5764  0.8754
 1830SOL    HW1 5550   5.197   1.466   3.045  0.2019  0.6021 -2.7636
 1830SOL    HW2 5551   5.188   1.612   3.082  0.1518 -0.6031  2.7401
 1831SOL     OW 5552   5.316   1.671   3.478 -0.0473  0.3496  0.2816
 1831SOL    HW1 5553   5.367   1.722   3.416  2.3424 -0.1033  1.7519
 1831SOL    HW2 5554   5.321   1.581   3.446 -0.2085  0.3558  0.2393
 1832SOL     OW 5555   3.629   1.605   2.339  0.1964 -0.2090  0.2039
 1832SOL    HW1 5556   3.599   1.561   2.419 -0.4199  0.5117  0.3783
 1832SOL    HW2 5557   3.713   1.644   2.363 -0.3808  0.7197  0.7594
 1833SOL     OW 5558   1.601   3.607   3.541  0.5173 -0.1362  0.0353
 1833SOL    HW1 5559   1.678   3.552   3.528  0.7141  0.3672 -0.9625
 1833SOL    HW2 5560   1.636   3.690   3.573  0.2028 -0.6293  1.7713
 1834SOL     OW 5561   2.795   3.432   2.536 -0.6756 -0.1066 -0.0560
 1834SOL    HW1 5562   2.746   3.362   2.492 -0.1199 -0.9470  0.6392
 1834SOL    HW2 5563   2.754   3.440   2.622  0.5047 -0.9792  0.6272
 1835SOL     OW 5564   4.619   3.428   4.323 -0.0735  0.1902  0.3678
 1835SOL    HW1 5565   4.611   3.479   4.242 -0.1470  1.7923  1.3533
 1835SOL    HW2 5566   4.563   3.351   4.308  1.1725 -0.3967 -1.7072
 1836SOL     OW 5567   1.289   4.258   0.439  0.0362  0.3699 -0.1933
 1836SOL    HW1 5568   1.316   4.228   0.352 -0.1991 -0.6984  0.0799
 1836SOL    HW2 5569   1.367   4.300   0.476  1.1061 -1.7904  0.2016
 1837SOL     OW 5570   4.536   0.737   3.180 -0.1656 -0.2438  0.7661
 1837SOL    HW1 5571   4.530   0.796   3.256 -1.5733  0.0340  0.4704
 1837SOL    HW2 5572   4.589   0.785   3.117  0.8169 -0.3731  1.4652
 1838SOL     OW 5573   4.158   1.732   0.950 -0.2380  0.4709  0.0458
 1838SOL    HW1 5574   4.163   1.801   0.884 -1.4241  0.5585  0.0117
 1838SOL    HW2 5575   4.235   1.678   0.935 -1.9309 -1.3320 -3.5051
 1839SOL     OW 5576   3.444   1.836   1.766 -0.4982  0.4577 -0.3084
 1839SOL    HW1 5577   3.402   1.909   1.813 -0.6272  0.0360  0.2396
 1839SOL    HW2 5578   3.375   1.802   1.709 -1.4472 -1.2223  1.6991
 1840SOL     OW 5579   1.089   2.008   2.901  0.3255 -0.2219 -0.7300
 1840SOL    HW1 5580   1.018   1.951   2.932  1.3210 -0.5687  1.0394
 1840SOL    HW2 5581   1.049   2.095   2.896 -0.7024 -0.7106 -1.6151
 1841SOL     OW 5582   1.170   2.843   1.504  0.4268 -0.0033  0.4744
 1841SOL    HW1 5583   1.255   2.884   1.519  0.4160  0.9009 -1.6051
 1841SOL    HW2 5584   1.175   2.809   1.414 -0.9649 -1.0747  0.7619
 1842SOL     OW 5585   0.408   3.223   1.779 -0.3293 -0.0955 -0.2202
 1842SOL    HW1 5586   0.438   3.271   1.856 -1.1287 -1.0921  0.7369
 1842SOL    HW2 5587   0.453   3.265   1.706 -0.1574  1.3866  0.6958
 1843SOL     OW 5588   0.757   0.850   3.728 -0.3099 -0.0787  0.6238
 1843SOL    HW1 5589   0.821   0.890   3.786  2.0617 -0.6935 -1.4164
 1843SOL    HW2 5590   0.720   0.923   3.678 -1.9734  0.3845  2.3775
 1844SOL     OW 5591   1.489   1.726   4.308  0.1111  0.8882 -0.1215
 1844SOL    HW1 5592   1.491   1.797   4.244  1.0466  1.0023  0.0250
 1844SOL    HW2 5593   1.452   1.652   4.260 -3.0850  2.0281  0.3351
 1845SOL     OW 5594   2.553   1.439   2.466  0.0763  0.4318 -0.3800
 1845SOL    HW1 5595   2.542   1.528   2.431 -0.0308  0.3401 -0.5820
 1845SOL    HW2 5596   2.506   1.384   2.404 -1.8631  0.4671  0.9900
 1846SOL     OW 5597   3.286   2.583   2.731  0.4103  0.7902  0.4019
 1846SOL    HW1 5598   3.309   2.663   2.684 -0.1443  0.3591 -0.6397
 1846SOL    HW2 5599   3.369   2.547   2.760  0.8801  0.5281 -1.1766
 1847SOL     OW 5600   2.155   4.453   2.969 -0.2601  0.4049 -0.1280
 1847SOL    HW1 5601   2.125   4.479   2.882 -0.2288  0.5122 -0.1074
 1847SOL    HW2 5602   2.250   4.468   2.967 -0.2259  0.1837 -0.1534
 1848SOL     OW 5603   2.901   2.155   1.936  0.0791  0.3056  0.2745
 1848SOL    HW1 5604   2.955   2.076   1.936  0.1529  0.3501 -0.5959
 1848SOL    HW2 5605   2.851   2.149   2.018  0.4350 -0.3973  0.4513
 1849SOL     OW 5606   5.467   2.432   2.406  0.1107 -0.3679  0.4006
 1849SOL    HW1 5607   5.384   2.475   2.390  0.0103 -0.8213 -0.3253
 1849SOL    HW2 5608   5.468   2.415   2.500 -1.0478 -1.2407  0.2702
 1850SOL     OW 5609   1.791   0.579   3.262  0.3342 -0.3710  0.1396
 1850SOL    HW1 5610   1.717   0.590   3.203  1.5991  1.9505 -1.1601
 1850SOL    HW2 5611   1.788   0.655   3.320 -0.0348 -1.8618  2.1600
 1851SOL     OW 5612   2.415   4.800   0.671 -0.0993 -0.0039  0.7957
 1851SOL    HW1 5613   2.502   4.762   0.681 -0.3129 -1.0714 -0.9935
 1851SOL    HW2 5614   2.356   4.737   0.712 -0.0895  0.4326  1.4876
 1852SOL     OW 5615   1.821   0.481   3.619 -0.2015  0.6705  0.2772
 1852SOL    HW1 5616   1.863   0.406   3.577 -0.4597  0.7461 -0.1226
 1852SOL    HW2 5617   1.871   0.556   3.588  1.0526  0.5664  1.8937
 1853SOL     OW 5618   3.737   1.757   0.393  0.0548 -0.4682  0.7123
 1853SOL    HW1 5619   3.795   1.681   0.386 -0.3266 -0.7878  0.9319
 1853SOL    HW2 5620   3.693   1.762   0.308  0.7070  0.0306  0.3972
 1854SOL     OW 5621   1.317   0.545   2.694 -0.7974 -0.1773  0.3799
 1854SOL    HW1 5622   1.317   0.634   2.660  2.6621 -0.2158 -0.0445
 1854SOL    HW2 5623   1.312   0.489   2.617 -0.4381 -0.3194  0.4555
 1855SOL     OW 5624   5.066   2.041   2.522 -0.1958  0.1795  0.0886
 1855SOL    HW1 5625   5.100   2.131   2.526  1.4808 -0.4419  2.4566
 1855SOL    HW2 5626   5.094   2.002   2.605  0.9146 -3.1367 -1.6633
 1856SOL     OW 5627   4.779   3.638   3.758  0.1568  0.0526 -0.1997
 1856SOL    HW1 5628   4.700   3.673   3.717  0.2782 -0.5709 -0.9936
 1856SOL    HW2 5629   4.751   3.556   3.800 -0.2574  1.3325  2.1637
 1857SOL     OW 5630   3.103   1.250   2.933 -0.3319  0.1394  0.3536
 1857SOL    HW1 5631   3.192   1.214   2.939 -0.1382  0.2965 -1.1378
 1857SOL    HW2 5632   3.100   1.292   2.847 -2.0664 -0.4193  0.1094
 1858SOL     OW 5633   0.303   4.353   4.254  0.0750  0.1753 -0.2817
 1858SOL    HW1 5634   0.257   4.404   4.320 -2.1798 -0.6445 -1.1208
 1858SOL    HW2 5635   0.350   4.417   4.201 -0.2365  1.0721  0.5081
 1859SOL     OW 5636   2.581   3.140   0.806 -0.1833  0.1767  0.3089
 1859SOL    HW1 5637   2.487   3.150   0.792 -0.1128  1.1696  0.4509
 1859SOL    HW2 5638   2.616   3.121   0.719 -0.3980  0.8843  0.0547
 1860SOL     OW 5639   3.450   4.436   0.237  0.0343  0.0703  0.8646
 1860SOL    HW1 5640   3.466   4.342   0.247 -1.4755 -0.4396 -0.9431
 1860SOL    HW2 5641   3.363   4.441   0.198  0.6234  2.1679 -0.3208
 1861SOL     OW 5642   2.406   2.837   4.288 -0.3111 -0.2939 -0.1041
 1861SOL    HW1 5643   2.470   2.787   4.237  0.0950  1.5558 -1.5481
 1861SOL    HW2 5644   2.328   2.839   4.233  0.2300  1.9938 -0.8922
 1862SOL     OW 5645   4.927   1.923   0.423 -0.1015 -0.6600  0.7816
 1862SOL    HW1 5646   4.984   1.928   0.347 -1.0260  0.4185  0.1179
 1862SOL    HW2 5647   4.984   1.896   0.495  1.1072 -0.2015  0.0178
 1863SOL     OW 5648   5.441   4.934   1.852 -0.2715 -0.1982 -0.1823
 1863SOL    HW1 5649   5.389   4.977   1.920 -0.7548 -0.3402 -0.4536
 1863SOL    HW2 5650   5.522   4.984   1.849  0.5687 -1.3394  1.8111
 1864SOL     OW 5651   3.560   2.312   3.702  0.8638 -0.3855 -0.2896
 1864SOL    HW1 5652   3.586   2.316   3.794 -0.5602  1.4095  0.0942
 1864SOL    HW2 5653   3.468   2.287   3.704  0.4402  0.9563 -1.1048
 1865SOL     OW 5654   4.441   1.284   0.160  0.1836 -0.8754  0.4659
 1865SOL    HW1 5655   4.358   1.332   0.163 -0.1204 -1.4650  2.3085
 1865SOL    HW2 5656   4.505   1.350   0.130 -0.7728 -0.1775 -0.0970
 1866SOL     OW 5657   3.788   1.732   2.892 -0.3775 -0.0720 -0.1948
 1866SOL    HW1 5658   3.778   1.649   2.847  1.5481 -0.0516 -0.7255
 1866SOL    HW2 5659   3.719   1.788   2.855 -0.3066 -0.7718 -1.4272
 1867SOL     OW 5660   3.760   3.817   4.302 -0.6294 -0.1156 -0.4458
 1867SOL    HW1 5661   3.752   3.794   4.395  0.1418  0.2457 -0.2820
 1867SOL    HW2 5662   3.736   3.910   4.298  1.0614  0.3653 -0.3028
 1868SOL     OW 5663   5.460   2.679   0.121  0.1209  0.4762  0.3385
 1868SOL    HW1 5664   5.469   2.668   0.026 -0.3383  1.3403  0.1860
 1868SOL    HW2 5665   5.401   2.753   0.131 -0.8715 -0.4076  1.3021
 1869SOL     OW 5666   5.415   0.813   2.871  0.5892  0.0762 -0.4259
 1869SOL    HW1 5667   5.399   0.904   2.844  0.9637  0.3017  0.1112
 1869SOL    HW2 5668   5.474   0.820   2.946  0.5603 -0.6095 -0.3365
 1870SOL     OW 5669   1.460   3.646   2.168  0.3302  0.0730  0.4602
 1870SOL    HW1 5670   1.433   3.736   2.150 -0.3938  0.1515  1.7753
 1870SOL    HW2 5671   1.516   3.653   2.246  1.0593 -0.5166 -0.0028
 1871SOL     OW 5672   5.207   2.190   3.933 -0.0482  0.0715  0.6634
 1871SOL    HW1 5673   5.135   2.237   3.975 -1.6813 -1.2264 -0.5640
 1871SOL    HW2 5674   5.177   2.100   3.927  0.7302 -0.0933 -1.8742
 1872SOL     OW 5675   5.448   0.123   4.173  0.1735 -0.9596  0.1294
 1872SOL    HW1 5676   5.452   0.068   4.251 -2.2500 -0.4698  0.7038
 1872SOL    HW2 5677   5.365   0.171   4.182  0.6993  0.4718 -1.8611
 1873SOL     OW 5678   3.883   3.192   0.093  0.0074  0.2880  0.5936
 1873SOL    HW1 5679   3.871   3.279   0.056 -0.3341  0.7027  1.6225
 1873SOL    HW2 5680   3.870   3.204   0.187  1.4171 -0.5955  0.9492
 1874SOL     OW 5681   0.420   3.532   1.878 -0.1574  0.4380  0.1898
 1874SOL    HW1 5682   0.451   3.610   1.831 -0.1539  0.3640  0.0680
 1874SOL    HW2 5683   0.366   3.566   1.949 -0.0222  0.5580  0.2349
 1875SOL     OW 5684   3.219   3.388   4.128 -0.0500 -0.1373  0.8341
 1875SOL    HW1 5685   3.239   3.357   4.040 -0.4754  2.7002 -0.3584
 1875SOL    HW2 5686   3.124   3.393   4.131  0.0002  1.2181  0.8591
 1876SOL     OW 5687   4.714   2.164   2.567 -0.3301 -0.3939  0.1148
 1876SOL    HW1 5688   4.785   2.218   2.603  0.3779 -0.0119 -1.6983
 1876SOL    HW2 5689   4.635   2.194   2.612  0.5560 -0.3767  1.7189
 1877SOL     OW 5690   0.606   3.595   0.086 -0.0685  0.0776 -0.2461
 1877SOL    HW1 5691   0.699   3.598   0.061 -0.4311  1.0144 -1.6410
 1877SOL    HW2 5692   0.593   3.506   0.118  1.3373 -0.0356  0.0858
 1878SOL     OW 5693   5.019   2.456   2.967  0.1068 -0.4275  0.4247
 1878SOL    HW1 5694   5.085   2.526   2.970  0.4612 -0.7398 -0.0572
 1878SOL    HW2 5695   4.941   2.496   3.006 -0.4316  1.0275 -1.9761
 1879SOL     OW 5696   4.671   2.350   3.108  0.2143 -0.3039 -0.5843
 1879SOL    HW1 5697   4.746   2.409   3.114 -0.7764  0.9127  0.2623
 1879SOL    HW2 5698   4.595   2.407   3.104 -0.7875 -1.5057  0.3477
 1880SOL     OW 5699   4.680   3.227   0.117 -0.1437 -0.0732 -0.5584
 1880SOL    HW1 5700   4.730   3.149   0.141 -0.0351 -0.0009 -0.5494
 1880SOL    HW2 5701   4.733   3.300   0.149 -1.3926 -0.0433  1.6293
 1881SOL     OW 5702   2.838   1.495   4.070  0.7646 -0.0516 -0.5747
 1881SOL    HW1 5703   2.914   1.505   4.127  0.8800 -0.8136 -0.5774
 1881SOL    HW2 5704   2.766   1.536   4.118  0.7840 -0.9937  0.2940
 1882SOL     OW 5705   2.368   4.444   0.642  0.0200  0.1818 -0.1148
 1882SOL    HW1 5706   2.357   4.504   0.569 -1.9104  1.0926  0.8780
 1882SOL    HW2 5707   2.390   4.500   0.717 -1.8233 -0.2850  0.8308
 1883SOL     OW 5708   4.869   4.471   3.405 -0.2591 -0.1184 -0.1876
 1883SOL    HW1 5709   4.840   4.461   3.496 -1.9842 -3.1919 -0.9138
 1883SOL    HW2 5710   4.963   4.456   3.408 -0.1137  0.8745  1.1860
 1884SOL     OW 5711   1.313   1.564   4.180 -0.3126 -0.7199  0.2307
 1884SOL    HW1 5712   1.267   1.488   4.143 -1.0122 -1.0454  1.7064
 1884SOL    HW2 5713   1.252   1.637   4.166 -1.2540 -1.1108  1.9829
 1885SOL     OW 5714   1.628   2.082   0.795 -0.0505 -0.0282  0.4655
 1885SOL    HW1 5715   1.649   2.036   0.714  0.6475 -0.8461  1.0840
 1885SOL    HW2 5716   1.696   2.150   0.802  0.9954 -1.0984  1.2275
 1886SOL     OW 5717   3.477   1.511   3.875 -0.8173 -0.1614 -0.2073
 1886SOL    HW1 5718   3.499   1.418   3.872  0.9907  0.2700 -1.3153
 1886SOL    HW2 5719   3.533   1.547   3.944 -0.3988  0.3708 -0.8135
 1887SOL     OW 5720   2.282   4.565   2.297 -0.1125 -0.3259 -0.2443
 1887SOL    HW1 5721   2.316   4.616   2.371 -0.3691  1.7174 -1.4727
 1887SOL    HW2 5722   2.351   4.501   2.279  0.3206 -0.3184  1.2153
 1888SOL     OW 5723   1.000   0.063   2.580  0.9023 -0.2572  0.0651
 1888SOL    HW1 5724   0.983   0.142   2.632  0.7230 -0.8743  0.9644
 1888SOL    HW2 5725   0.930   0.002   2.605  1.5337 -1.0071  0.0329
 1889SOL     OW 5726   0.048   1.792   2.077 -0.9523  0.1323 -0.0835
 1889SOL    HW1 5727   0.099   1.759   2.151  0.8482  0.2003 -1.2159
 1889SOL    HW2 5728  -0.005   1.863   2.114  1.4823  1.6246  0.8106
 1890SOL     OW 5729   3.636   4.596   0.021 -0.5910 -0.4237 -0.4916
 1890SOL    HW1 5730   3.685   4.514   0.025 -0.9539 -0.6076  0.3573
 1890SOL    HW2 5731   3.608   4.603  -0.070 -4.2148 -3.4315  0.1405
 1891SOL     OW 5732   4.707   1.731   2.831 -0.0878  0.0394  0.8326
 1891SOL    HW1 5733   4.749   1.797   2.777  1.5988 -2.0162 -0.5252
 1891SOL    HW2 5734   4.616   1.761   2.840  1.1554  3.8744  2.6305
 1892SOL     OW 5735   0.065   4.822   3.051 -0.6098  0.2072  0.6813
 1892SOL    HW1 5736  -0.013   4.874   3.034 -1.1691 -0.2808  1.6749
 1892SOL    HW2 5737   0.043   4.734   3.022 -0.7209 -0.1042  1.6719
 1893SOL     OW 5738   0.603   0.943   3.185 -0.1379  0.8144  0.1348
 1893SOL    HW1 5739   0.631   0.916   3.098 -0.8264  1.4980 -0.3080
 1893SOL    HW2 5740   0.682   0.936   3.239 -0.0218 -0.9306 -0.2124
 1894SOL     OW 5741   4.136   4.141   0.549  0.7210 -0.1871  0.2009
 1894SOL    HW1 5742   4.116   4.232   0.569 -1.3903 -0.6121  0.2032
 1894SOL    HW2 5743   4.107   4.092   0.626 -1.3113 -1.1673 -1.1215
 1895SOL     OW 5744   3.335   0.891   3.170 -0.0553 -0.4060  0.4291
 1895SOL    HW1 5745   3.381   0.880   3.087 -0.0791  0.3153  0.3088
 1895SOL    HW2 5746   3.394   0.945   3.223 -0.9116  0.8901  0.1153
 1896SOL     OW 5747   1.114   1.463   0.039 -0.0802  0.2488 -0.1024
 1896SOL    HW1 5748   1.097   1.493   0.128 -2.1823 -1.9998  0.3917
 1896SOL    HW2 5749   1.041   1.498  -0.012  0.7274  0.9312 -0.8142
 1897SOL     OW 5750   3.285   3.839   3.283 -0.2191  1.0029  0.3187
 1897SOL    HW1 5751   3.267   3.779   3.211 -0.2117  0.1920  0.9778
 1897SOL    HW2 5752   3.213   3.903   3.280 -0.2671  0.9177 -0.3395
 1898SOL     OW 5753   4.949   3.747   0.739  0.2651  0.4013 -0.2916
 1898SOL    HW1 5754   4.885   3.711   0.678  0.5929  1.5942 -1.3946
 1898SOL    HW2 5755   5.003   3.672   0.764 -0.1076 -0.1860 -1.1895
 1899SOL     OW 5756   4.384   3.564   2.358 -0.3691 -0.1172  0.2291
 1899SOL    HW1 5757   4.356   3.478   2.389  0.0901 -0.8020 -1.1655
 1899SOL    HW2 5758   4.304   3.604   2.324 -0.1362 -1.1905 -1.7467
 1900SOL     OW 5759   5.156   3.365   3.187 -0.1586 -0.4233  0.5449
 1900SOL    HW1 5760   5.234   3.315   3.163  0.2243 -0.4290  1.7333
 1900SOL    HW2 5761   5.183   3.457   3.181 -0.5288 -0.3746 -0.5403
 1901SOL     OW 5762   1.685   0.289   2.753  0.3439 -0.1861 -0.3317
 1901SOL    HW1 5763   1.705   0.382   2.766  0.1745 -0.3166  1.0454
 1901SOL    HW2 5764   1.765   0.251   2.718  1.0229  0.1508  0.8134
 1902SOL     OW 5765   4.625   1.666   0.056  0.0313  0.0873 -0.1558
 1902SOL    HW1 5766   4.595   1.643  -0.032 -1.7756 -3.2792  1.1802
 1902SOL    HW2 5767   4.594   1.755   0.070  0.0390  0.5576 -2.7313
 1903SOL     OW 5768   4.405   1.908   0.267 -0.6377 -0.0385 -0.4732
 1903SOL    HW1 5769   4.353   1.936   0.192 -0.3719 -0.0628 -0.6657
 1903SOL    HW2 5770   4.496   1.918   0.239 -0.4939  1.5616  0.4265
 1904SOL     OW 5771   0.498   4.805   0.130 -0.1609 -0.0770 -0.3725
 1904SOL    HW1 5772   0.546   4.887   0.122 -2.0058  1.1310  0.4695
 1904SOL    HW2 5773   0.440   4.803   0.055  0.0564 -0.7647 -0.5353
 1905SOL     OW 5774   3.048   2.116   3.115  0.2327 -0.4711  0.2035
 1905SOL    HW1 5775   3.082   2.117   3.205  0.3185 -1.0241  0.1806
 1905SOL    HW2 5776   3.102   2.051   3.070 -0.0342 -0.4402 -0.1610
 1906SOL     OW 5777   3.462   4.376   3.897 -0.6648  0.0709 -0.6572
 1906SOL    HW1 5778   3.396   4.420   3.950 -2.0297 -2.1654 -0.3491
 1906SOL    HW2 5779   3.419   4.363   3.812  0.5371  1.2615 -1.4933
 1907SOL     OW 5780   2.970   4.904   4.339  0.5551  0.3648 -0.5923
 1907SOL    HW1 5781   2.954   4.928   4.247 -3.5454 -0.9773 -0.4186
 1907SOL    HW2 5782   2.933   4.977   4.389  3.1052  1.2736  0.1456
 1908SOL     OW 5783   2.399   4.316   2.757  0.3872 -0.8393 -0.4342
 1908SOL    HW1 5784   2.322   4.259   2.754  1.1314 -1.8159 -1.5664
 1908SOL    HW2 5785   2.462   4.275   2.698  2.7473 -1.4818  2.3129
 1909SOL     OW 5786   1.015   1.847   3.643 -0.1872  0.2887  0.2293
 1909SOL    HW1 5787   1.107   1.837   3.669 -0.4326  1.3909  1.6774
 1909SOL    HW2 5788   1.012   1.932   3.599 -0.3149 -0.2910 -0.9172
 1910SOL     OW 5789   2.513   3.118   2.937  0.0782 -0.5614  0.5275
 1910SOL    HW1 5790   2.594   3.079   2.970  3.0662  4.7209  0.6598
 1910SOL    HW2 5791   2.472   3.157   3.014 -0.2257  0.3573 -0.0705
 1911SOL     OW 5792   1.900   0.360   1.219 -0.0660 -0.7647 -0.5745
 1911SOL    HW1 5793   1.927   0.321   1.135 -1.0732 -1.3409 -0.6479
 1911SOL    HW2 5794   1.925   0.294   1.284 -0.5718 -0.9567 -0.5696
 1912SOL     OW 5795   0.037   4.641   1.954 -0.1013  0.0759  0.1862
 1912SOL    HW1 5796   0.106   4.708   1.957 -0.5313  0.5319  0.0481
 1912SOL    HW2 5797   0.082   4.559   1.977  0.7972  0.1192 -1.2798
 1913SOL     OW 5798   3.321   1.784   2.645 -0.3021  0.3074 -0.3520
 1913SOL    HW1 5799   3.314   1.863   2.591  0.9502  1.8773  1.5749
 1913SOL    HW2 5800   3.381   1.810   2.716 -0.1354 -2.2946  0.5691
 1914SOL     OW 5801   0.233   4.573   3.338  0.9436  0.2253  0.2216
 1914SOL    HW1 5802   0.172   4.645   3.349 -0.6291 -0.9663 -0.3085
 1914SOL    HW2 5803   0.272   4.587   3.252 -0.5996 -0.4010 -0.6179
 1915SOL     OW 5804   2.134   1.338   2.942  0.0236 -0.4547 -0.6926
 1915SOL    HW1 5805   2.111   1.396   3.014  0.5420  0.0991 -0.9625
 1915SOL    HW2 5806   2.137   1.251   2.981 -0.0847 -0.2130 -0.1350
 1916SOL     OW 5807   4.110   3.182   2.792  0.0541 -0.3592 -0.1002
 1916SOL    HW1 5808   4.177   3.240   2.756 -0.5410  0.2106 -0.3178
 1916SOL    HW2 5809   4.086   3.126   2.718 -1.2007  0.8421 -0.6475
 1917SOL     OW 5810   5.445   4.979   2.722  0.6868  0.5704  0.1261
 1917SOL    HW1 5811   5.385   4.958   2.793 -0.6923  0.4549 -1.0189
 1917SOL    HW2 5812   5.489   4.897   2.702  3.2176  1.1544  2.6379
 1918SOL     OW 5813   5.081   1.544   1.924 -0.0672  0.1927 -0.0368
 1918SOL    HW1 5814   5.043   1.587   2.001  0.6320 -0.5104  0.7267
 1918SOL    HW2 5815   5.175   1.558   1.933  0.3271 -2.4745  0.9086
 1919SOL     OW 5816   0.810   0.300   1.281  0.0898 -0.0977  0.1025
 1919SOL    HW1 5817   0.765   0.258   1.354 -0.4905  0.6664  0.1818
 1919SOL    HW2 5818   0.742   0.348   1.234  0.3676 -0.9020 -1.1919
 1920SOL     OW 5819   4.503   0.915   0.836  0.2023  0.2166 -0.4043
 1920SOL    HW1 5820   4.554   0.922   0.756  0.0479 -1.2523 -0.6731
 1920SOL    HW2 5821   4.542   0.840   0.882 -0.7094  0.0533  0.1250
 1921SOL     OW 5822   3.039   0.096   1.357  0.5085  0.0742  0.5322
 1921SOL    HW1 5823   2.978   0.154   1.312  0.5078  0.9218  1.5869
 1921SOL    HW2 5824   3.124   0.113   1.316  0.6029  1.2156  1.1694
 1922SOL     OW 5825   4.668   0.051   2.020  0.5830 -0.0614  0.4580
 1922SOL    HW1 5826   4.659   0.085   1.931  0.0658 -0.9488  0.1694
 1922SOL    HW2 5827   4.581   0.022   2.045  0.5769  0.7443  1.5108
 1923SOL     OW 5828   1.530   4.801   1.231 -0.5298 -0.4034 -0.4735
 1923SOL    HW1 5829   1.446   4.814   1.188 -1.3237  0.3431  1.2021
 1923SOL    HW2 5830   1.509   4.795   1.324  1.3117  0.4117  0.0523
 1924SOL     OW 5831   0.544   0.873   4.267  0.1398 -0.2396  0.1915
 1924SOL    HW1 5832   0.485   0.798   4.263 -0.6846  0.1384  3.0821
 1924SOL    HW2 5833   0.632   0.835   4.265 -0.1119 -0.9035 -2.5972
 1925SOL     OW 5834   4.419   1.699   3.905  0.0104 -0.0980  0.4992
 1925SOL    HW1 5835   4.490   1.637   3.920 -0.3820 -0.5403  0.5575
 1925SOL    HW2 5836   4.456   1.784   3.927  1.0861 -0.0782 -1.2108
 1926SOL     OW 5837   1.714   3.947   0.765 -0.5457 -0.3216  0.1543
 1926SOL    HW1 5838   1.771   4.021   0.784 -1.3646  0.2850  0.3474
 1926SOL    HW2 5839   1.680   3.965   0.677  0.2075 -1.1140 -0.3082
 1927SOL     OW 5840   0.892   0.436   2.080  0.3950  0.9307  0.3633
 1927SOL    HW1 5841   0.834   0.374   2.037 -0.5695  0.3894  2.3429
 1927SOL    HW2 5842   0.845   0.519   2.079 -1.0300  0.2664  2.9105
 1928SOL     OW 5843   1.781   1.937   2.886  0.6316  0.0004  0.2200
 1928SOL    HW1 5844   1.826   1.946   2.970  0.1802 -1.8776  0.7057
 1928SOL    HW2 5845   1.804   2.017   2.838  0.6381  1.3012  2.2369
 1929SOL     OW 5846   1.263   4.498   0.228  0.0597  0.6548 -0.6447
 1929SOL    HW1 5847   1.204   4.441   0.177 -0.5060 -0.9612  1.6657
 1929SOL    HW2 5848   1.217   4.582   0.232 -1.6718 -0.2709  0.2166
 1930SOL     OW 5849   3.529   0.783   3.692 -0.0377 -0.4106  0.1031
 1930SOL    HW1 5850   3.457   0.781   3.755 -1.1736  1.7473 -0.9980
 1930SOL    HW2 5851   3.488   0.760   3.609  0.1002  2.4389 -0.8456
 1931SOL     OW 5852   3.363   1.836   4.193 -0.0309  0.2790  0.3233
 1931SOL    HW1 5853   3.286   1.838   4.137 -0.4208 -1.2582  0.7524
 1931SOL    HW2 5854   3.344   1.768   4.258  0.9489  1.0996  1.5315
 1932SOL     OW 5855   3.746   2.416   1.538  0.4102  0.2728 -0.3762
 1932SOL    HW1 5856   3.806   2.400   1.611 -0.5952  1.1168  0.6748
 1932SOL    HW2 5857   3.692   2.337   1.534 -0.9235  1.0400  1.2208
 1933SOL     OW 5858   1.070   2.434   0.883  0.1028  0.2233  0.3645
 1933SOL    HW1 5859   1.018   2.494   0.830 -0.5059 -0.0438  0.6453
 1933SOL    HW2 5860   1.151   2.482   0.902  0.3527  0.2956 -0.8303
 1934SOL     OW 5861   5.386   4.599   0.801 -0.3639 -0.7224 -0.2963
 1934SOL    HW1 5862   5.315   4.546   0.765 -0.6839  0.0254 -0.7776
 1934SOL    HW2 5863   5.375   4.685   0.762  0.0002 -0.2185  0.6683
 1935SOL     OW 5864   3.805   2.627   0.517  0.2649  0.3021 -0.0414
 1935SOL    HW1 5865   3.833   2.702   0.569  0.9417 -0.3723  0.5877
 1935SOL    HW2 5866   3.731   2.660   0.466  1.3804  1.7914 -0.7903
 1936SOL     OW 5867   2.118   4.824   0.185  0.5332  0.1225  0.3324
 1936SOL    HW1 5868   2.101   4.773   0.265 -1.4161 -0.6970 -0.5339
 1936SOL    HW2 5869   2.185   4.773   0.139 -0.0132 -0.6747  0.3836
 1937SOL     OW 5870   0.572   0.534   2.087  0.1036 -0.2947 -0.2717
 1937SOL    HW1 5871   0.649   0.549   2.032  0.0957  0.1066 -0.1772
 1937SOL    HW2 5872   0.580   0.443   2.114 -0.2471 -0.6939 -1.4706
 1938SOL     OW 5873   4.252   5.091   3.181  0.6708  0.0721  0.1892
 1938SOL    HW1 5874   4.302   5.172   3.177  1.1234 -0.2141 -0.0454
 1938SOL    HW2 5875   4.175   5.113   3.234  0.5728  0.7613 -0.2247
 1939SOL     OW 5876   1.267   4.911   3.575  0.0501  0.5357 -0.0656
 1939SOL    HW1 5877   1.267   4.936   3.667  3.2478  0.2237  0.1494
 1939SOL    HW2 5878   1.239   4.989   3.529 -0.4934  1.0578  1.1068
 1940SOL     OW 5879   0.202   4.815   2.149  0.2196  0.6385  0.6752
 1940SOL    HW1 5880   0.115   4.816   2.190 -1.5577 -1.0405 -2.6439
 1940SOL    HW2 5881   0.255   4.762   2.209 -1.5404  0.1476  1.9183
 1941SOL     OW 5882   0.893   4.114   4.201  0.4692  0.4725  0.2191
 1941SOL    HW1 5883   0.977   4.069   4.207  1.7113  2.7312  1.0733
 1941SOL    HW2 5884   0.891   4.172   4.277 -0.5660  2.5548 -1.2975
 1942SOL     OW 5885   3.257   0.223   3.626  0.1138  0.1238 -0.5003
 1942SOL    HW1 5886   3.350   0.215   3.606  0.2200  1.9506 -0.9086
 1942SOL    HW2 5887   3.212   0.201   3.544  0.2386  0.4224 -0.6492
 1943SOL     OW 5888   4.065   0.452   3.355 -0.9509 -0.6667  0.4670
 1943SOL    HW1 5889   4.039   0.434   3.445  0.3208  0.0490  0.9924
 1943SOL    HW2 5890   4.058   0.547   3.346  0.8161 -0.5057  0.4462
 1944SOL     OW 5891   3.607   3.734   1.872 -0.3796 -0.1047  0.0742
 1944SOL    HW1 5892   3.519   3.731   1.908 -0.8874  1.3867 -0.9042
 1944SOL    HW2 5893   3.598   3.699   1.783  0.2966 -1.1681  0.4026
 1945SOL     OW 5894   3.741   2.116   3.566 -0.4730  0.1018  0.4526
 1945SOL    HW1 5895   3.835   2.130   3.554 -0.2245 -2.3329 -1.3572
 1945SOL    HW2 5896   3.707   2.200   3.596  2.1102  1.3570  0.1106
 1946SOL     OW 5897   0.058   3.741   4.434 -0.6803 -0.3421 -0.2416
 1946SOL    HW1 5898   0.014   3.672   4.385 -0.2155 -0.9557  0.1942
 1946SOL    HW2 5899   0.092   3.801   4.367  0.9063 -1.7410 -0.7660
 1947SOL     OW 5900   1.657   0.032   1.177 -0.1826 -0.5990  0.5120
 1947SOL    HW1 5901   1.658   0.065   1.267 -2.0273  0.0450  0.3275
 1947SOL    HW2 5902   1.568  -0.001   1.164 -0.3211  0.4254 -1.4509
 1948SOL     OW 5903   4.738   0.342   0.195  0.0381  0.3351 -0.2807
 1948SOL    HW1 5904   4.808   0.363   0.133  0.2322 -1.5070 -0.7337
 1948SOL    HW2 5905   4.780   0.351   0.281  0.2395  1.2443 -0.4610
 1949SOL     OW 5906   2.049   0.282   2.969  0.6261 -0.2422 -0.2633
 1949SOL    HW1 5907   2.024   0.238   3.050  1.1662 -1.1596 -0.5716
 1949SOL    HW2 5908   2.022   0.373   2.981 -0.1852 -0.5778  0.5472
 1950SOL     OW 5909   0.765   3.307   0.685  0.4727  0.1986  0.0019
 1950SOL    HW1 5910   0.819   3.318   0.763  1.1758 -0.0011 -0.4453
 1950SOL    HW2 5911   0.739   3.215   0.687 -0.4468  0.4631  0.5892
 1951SOL     OW 5912   2.328   0.813   2.413 -0.0033 -0.4746  0.4007
 1951SOL    HW1 5913   2.353   0.853   2.330  0.0168  0.5536  0.8764
 1951SOL    HW2 5914   2.332   0.885   2.476 -2.2382 -0.6787  0.8746
 1952SOL     OW 5915   1.403   1.234   4.005  0.1508  0.8139 -0.2118
 1952SOL    HW1 5916   1.415   1.290   3.929 -0.1191 -0.0153 -0.8822
 1952SOL    HW2 5917   1.489   1.193   4.019 -0.3279 -0.7358 -1.4749
 1953SOL     OW 5918   2.722   4.796   2.638  0.1710 -0.1082 -0.1957
 1953SOL    HW1 5919   2.688   4.759   2.556 -0.9262  0.6115 -0.0904
 1953SOL    HW2 5920   2.676   4.879   2.647 -0.0980 -0.3980  1.4068
 1954SOL     OW 5921   1.351   3.223   0.757 -0.4192  0.4023  0.1411
 1954SOL    HW1 5922   1.266   3.254   0.788 -1.0670 -1.0957 -0.0433
 1954SOL    HW2 5923   1.341   3.220   0.661  0.0148  0.7101  0.0870
 1955SOL     OW 5924   2.972   2.260   2.866 -0.0671 -0.0094 -0.2868
 1955SOL    HW1 5925   3.028   2.218   2.800  0.6114  0.8939 -0.2977
 1955SOL    HW2 5926   3.008   2.229   2.950 -0.4250 -0.5179 -0.3153
 1956SOL     OW 5927   1.407   1.306   1.285 -0.6592 -0.3375 -0.4766
 1956SOL    HW1 5928   1.413   1.227   1.231 -1.3150 -1.5840  1.1829
 1956SOL    HW2 5929   1.465   1.369   1.243  1.3326 -2.3114 -0.8398
 1957SOL     OW 5930   3.801   0.205   3.459  0.1503 -0.3901 -0.0661
 1957SOL    HW1 5931   3.842   0.196   3.373 -1.2727 -0.3559 -0.7918
 1957SOL    HW2 5932   3.803   0.299   3.477 -1.0550 -0.1796 -0.8854
 1958SOL     OW 5933   3.430   4.885   1.955 -0.2360 -0.2840  0.2022
 1958SOL    HW1 5934   3.511   4.933   1.970 -0.1890 -0.7132  1.3984
 1958SOL    HW2 5935   3.458   4.799   1.924 -0.2320 -0.4706  0.7254
 1959SOL     OW 5936   5.350   2.521   4.099  0.0283  0.2754  0.3315
 1959SOL    HW1 5937   5.286   2.490   4.163 -1.4755  0.6503 -0.9215
 1959SOL    HW2 5938   5.411   2.448   4.089 -1.4345 -0.9596  0.0034
 1960SOL     OW 5939   0.775   1.216   3.932  0.1674 -0.3319 -0.6808
 1960SOL    HW1 5940   0.791   1.309   3.915  0.0182 -0.3224 -0.7655
 1960SOL    HW2 5941   0.682   1.210   3.951 -0.0128 -0.5975 -1.5997
 1961SOL     OW 5942   1.718   0.511   1.691  0.2418 -0.0693 -0.1485
 1961SOL    HW1 5943   1.801   0.523   1.737  0.5001  0.4889 -0.7359
 1961SOL    HW2 5944   1.655   0.562   1.742  0.7451  1.4435 -0.9862
 1962SOL     OW 5945   0.283   3.086   2.729 -0.1561 -0.2595 -0.0238
 1962SOL    HW1 5946   0.209   3.115   2.781  1.3891  1.3876  1.3904
 1962SOL    HW2 5947   0.259   2.998   2.700 -1.8794 -0.5128  1.9380
 1963SOL     OW 5948   4.793   3.373   3.845  0.7764  0.2539  0.1342
 1963SOL    HW1 5949   4.832   3.322   3.774  1.4703  0.2951  0.4734
 1963SOL    HW2 5950   4.866   3.424   3.881  0.3989  0.3666  0.7612
 1964SOL     OW 5951   1.722   4.119   0.529  0.2814  0.0677 -0.4354
 1964SOL    HW1 5952   1.799   4.170   0.551  0.8452 -0.4979 -1.0433
 1964SOL    HW2 5953   1.752   4.057   0.463 -0.7655  0.0593 -0.9355
 1965SOL     OW 5954   2.812   4.981   0.560 -0.2520  0.1865  0.3498
 1965SOL    HW1 5955   2.844   5.060   0.517  0.7332 -1.3691 -1.9409
 1965SOL    HW2 5956   2.742   4.949   0.503 -0.1028 -1.0193  0.8129
 1966SOL     OW 5957   0.315   2.920   4.366 -0.1900 -0.1450 -0.1325
 1966SOL    HW1 5958   0.237   2.898   4.417 -0.1947  3.4403  1.7252
 1966SOL    HW2 5959   0.388   2.906   4.427  0.5544 -1.9194 -1.3402
 1967SOL     OW 5960   3.478   0.069   4.280 -0.1970 -0.3615 -0.0125
 1967SOL    HW1 5961   3.408   0.030   4.332 -0.7537  0.9992  0.3193
 1967SOL    HW2 5962   3.470   0.028   4.194 -0.5430 -1.1907  0.4043
 1968SOL     OW 5963   3.583   1.568   1.930  0.2781 -0.1259 -0.4525
 1968SOL    HW1 5964   3.649   1.564   1.860 -0.3677 -1.5625 -1.0261
 1968SOL    HW2 5965   3.500   1.584   1.884  0.0333  0.2947  0.1219
 1969SOL     OW 5966   4.626   4.251   1.591 -0.0711  0.0345  0.3255
 1969SOL    HW1 5967   4.638   4.252   1.496 -0.2573  0.6663  0.3057
 1969SOL    HW2 5968   4.596   4.162   1.610 -0.4495  0.0287 -0.2633
 1970SOL     OW 5969   3.502   0.186   3.568  0.4027  0.2312 -0.0904
 1970SOL    HW1 5970   3.502   0.272   3.526  0.6391 -0.1371 -0.8752
 1970SOL    HW2 5971   3.587   0.182   3.613  1.0898 -0.1852 -1.3618
 1971SOL     OW 5972   4.601   5.021   3.445  0.1007  0.2700 -0.2152
 1971SOL    HW1 5973   4.570   4.969   3.371 -0.8639  0.0542  0.3255
 1971SOL    HW2 5974   4.677   5.069   3.411  0.3502 -0.6703 -1.0252
 1972SOL     OW 5975   0.032   0.314   0.957 -0.4359  0.2874 -0.3725
 1972SOL    HW1 5976   0.102   0.249   0.968  0.8437  0.4836 -5.0042
 1972SOL    HW2 5977   0.076   0.398   0.963 -0.9928  0.5382  0.2264
 1973SOL     OW 5978   2.412   4.857   1.883  0.0551  0.1832 -0.9057
 1973SOL    HW1 5979   2.431   4.764   1.886  1.3693  0.4522  0.9389
 1973SOL    HW2 5980   2.318   4.864   1.897  0.3105 -0.8042  1.9381
 1974SOL     OW 5981   5.274   4.495   2.644  0.1705  0.0860 -0.2824
 1974SOL    HW1 5982   5.219   4.433   2.595 -0.8116  0.8566 -0.1771
 1974SOL    HW2 5983   5.256   4.580   2.605 -1.2380  0.8597  1.8765
 1975SOL     OW 5984   2.973   0.167   4.365 -0.4122  0.3266  0.0363
 1975SOL    HW1 5985   2.961   0.107   4.291  0.7072 -0.1020  0.1959
 1975SOL    HW2 5986   2.885   0.203   4.380 -0.8445 -0.2956 -0.8853
 1976SOL     OW 5987   5.192   4.248   0.877  0.5732 -0.1037  0.3041
 1976SOL    HW1 5988   5.173   4.155   0.888 -0.7857  0.1135  0.0015
 1976SOL    HW2 5989   5.201   4.282   0.966  0.8012 -0.4657  0.4213
 1977SOL     OW 5990   4.647   3.184   1.672 -1.1757 -1.1310  0.8257
 1977SOL    HW1 5991   4.715   3.191   1.740 -0.1201 -2.1859 -0.0925
 1977SOL    HW2 5992   4.594   3.264   1.683  3.7189  3.1404 -2.2234
 1978SOL     OW 5993   3.271   1.945   2.407  0.8446 -0.0990 -0.4761
 1978SOL    HW1 5994   3.342   1.907   2.356  1.3695  1.4760 -0.9902
 1978SOL    HW2 5995   3.208   1.976   2.342  0.4590 -0.0295 -0.0787
 1979SOL     OW 5996   1.116   1.153   3.714  0.4168 -0.4732  0.0285
 1979SOL    HW1 5997   1.208   1.129   3.705  0.8002 -0.2296  2.6748
 1979SOL    HW2 5998   1.111   1.243   3.683  1.5140  0.2203  1.7754
 1980SOL     OW 5999   4.135   3.024   2.988 -0.1324 -0.1751 -0.4212
 1980SOL    HW1 6000   4.145   3.075   2.907  0.5209 -0.8373 -0.7625
 1980SOL    HW2 6001   4.041   3.029   3.007 -0.0575  1.3393 -0.3220
 1981SOL     OW 6002   4.492   2.573   2.524 -0.1842 -0.9175  0.0916
 1981SOL    HW1 6003   4.450   2.512   2.463  1.2390 -1.4088 -0.4463
 1981SOL    HW2 6004   4.518   2.647   2.470  0.6030 -1.1148  0.1752
 1982SOL     OW 6005   2.483   0.706   3.554 -0.4346  0.3871 -0.4279
 1982SOL    HW1 6006   2.567   0.697   3.599 -1.6224  2.0466  2.3780
 1982SOL    HW2 6007   2.501   0.765   3.480  0.9595  0.2627 -0.2083
 1983SOL     OW 6008   0.326   4.021   1.370  0.0276 -0.0935 -0.4443
 1983SOL    HW1 6009   0.418   4.037   1.389 -0.4629  0.3149  1.9008
 1983SOL    HW2 6010   0.285   4.108   1.373 -0.5963 -0.3759 -0.5293
 1984SOL     OW 6011   4.168   4.112   1.951 -1.2812 -0.2989 -0.2009
 1984SOL    HW1 6012   4.155   4.018   1.965 -0.6131 -0.4380 -0.5119
 1984SOL    HW2 6013   4.142   4.152   2.034  1.0901 -0.9792  0.9458
 1985SOL     OW 6014   4.222   3.369   0.734 -0.3181  0.1259  0.0334
 1985SOL    HW1 6015   4.251   3.454   0.701  1.1290  0.0061  0.8960
 1985SOL    HW2 6016   4.146   3.348   0.682  0.4210  1.0724 -1.5014
 1986SOL     OW 6017   0.097   0.653   4.108  0.3191  0.7250 -0.7281
 1986SOL    HW1 6018   0.002   0.651   4.106  0.3139 -1.2634 -0.6681
 1986SOL    HW2 6019   0.123   0.561   4.120  2.2275  1.3021 -0.0328
 1987SOL     OW 6020   0.046   3.428   2.075 -0.4604 -0.2037  0.0062
 1987SOL    HW1 6021   0.113   3.493   2.096  1.3546 -2.4946  1.9332
 1987SOL    HW2 6022   0.078   3.385   1.996 -0.5125 -0.2283 -0.0016
 1988SOL     OW 6023   3.528   1.245   3.860 -0.1403 -0.2094  0.2960
 1988SOL    HW1 6024   3.499   1.210   3.775  0.4433  0.3319 -0.1345
 1988SOL    HW2 6025   3.608   1.195   3.880  1.0602  1.2548 -0.6282
 1989SOL     OW 6026   4.814   2.781   2.232  0.2479 -0.3404 -0.0535
 1989SOL    HW1 6027   4.871   2.772   2.309 -0.3575  1.4143  0.6487
 1989SOL    HW2 6028   4.731   2.740   2.258  0.2051 -0.1982  0.0307
 1990SOL     OW 6029   1.945   0.473   4.189 -0.0345  0.4068  0.5292
 1990SOL    HW1 6030   1.911   0.559   4.163 -1.1487 -0.3913 -0.7777
 1990SOL    HW2 6031   1.965   0.429   4.107  2.3367  0.0629  1.2189
 1991SOL     OW 6032   2.588   2.637   4.143  0.1554 -0.2836  0.3954
 1991SOL    HW1 6033   2.668   2.597   4.178  0.7094  2.2848  2.4005
 1991SOL    HW2 6034   2.593   2.622   4.049  2.5408 -1.0053  0.5578
 1992SOL     OW 6035   3.924   1.389   1.320  0.1830  0.1149 -0.0367
 1992SOL    HW1 6036   3.837   1.352   1.301  0.2466  0.3722 -0.8388
 1992SOL    HW2 6037   3.946   1.439   1.242  0.5015  1.0975  0.6757
 1993SOL     OW 6038   2.061   3.711   4.165  0.1496  0.1498  0.3476
 1993SOL    HW1 6039   2.030   3.680   4.250 -0.7916 -0.8537 -0.3378
 1993SOL    HW2 6040   2.149   3.746   4.183 -0.3940  0.7969  1.8754
 1994SOL     OW 6041   5.234   2.593   2.299  0.8763  0.2263  0.3827
 1994SOL    HW1 6042   5.152   2.639   2.314  0.5512  0.7179 -2.4241
 1994SOL    HW2 6043   5.302   2.656   2.322  0.4265  1.9776 -2.6105
 1995SOL     OW 6044   0.463   2.295   2.542  0.3490 -0.0233 -0.2963
 1995SOL    HW1 6045   0.470   2.277   2.448  0.2926 -0.5032 -0.2123
 1995SOL    HW2 6046   0.382   2.250   2.568  0.1288  0.4817 -0.1049
 1996SOL     OW 6047   2.775   1.009   0.936 -0.0703  0.5046 -0.0618
 1996SOL    HW1 6048   2.829   0.969   1.004  0.6468  0.0598 -0.8690
 1996SOL    HW2 6049   2.810   1.097   0.925 -0.8722  0.9593  0.8703
 1997SOL     OW 6050   3.619   1.692   4.096 -0.3169 -0.4355  0.0971
 1997SOL    HW1 6051   3.666   1.691   4.179  0.1802  1.5520 -0.1110
 1997SOL    HW2 6052   3.549   1.756   4.109 -0.6795 -0.6433 -0.7839
 1998SOL     OW 6053   2.300   3.943   3.226  0.4790  0.6511  0.1388
 1998SOL    HW1 6054   2.286   3.996   3.304 -0.1382  0.8010 -0.0624
 1998SOL    HW2 6055   2.282   4.002   3.153 -1.0538 -0.0246 -0.0762
 1999SOL     OW 6056   1.045   3.746   3.318  0.1250  0.6549 -0.6943
 1999SOL    HW1 6057   0.996   3.734   3.399  0.9327 -0.6587 -0.3634
 1999SOL    HW2 6058   0.988   3.709   3.250  0.3087 -0.1782 -0.4144
 2000SOL     OW 6059   4.335   4.551   1.658  0.3526  0.1424  0.2114
 2000SOL    HW1 6060   4.410   4.500   1.691  0.1244  0.4329  1.2295
 2000SOL    HW2 6061   4.259   4.499   1.681  0.1433  0.7104  0.8425
 2001SOL     OW 6062   5.350   4.775   1.240  0.2390  0.0582 -0.0453
 2001SOL    HW1 6063   5.370   4.759   1.332 -1.5718  0.9343  0.5507
 2001SOL    HW2 6064   5.433   4.804   1.202  0.5472  1.9279  1.8562
 2002SOL     OW 6065   4.836   1.771   1.703  0.1235  0.0401  0.0869
 2002SOL    HW1 6066   4.896   1.821   1.758  0.5044 -0.5320  0.1970
 2002SOL    HW2 6067   4.893   1.722   1.644 -0.2150 -0.8230  0.4682
 2003SOL     OW 6068   4.181   3.256   0.166  0.5199 -0.3942  0.7120
 2003SOL    HW1 6069   4.153   3.191   0.102  2.1904  0.7340 -1.2752
 2003SOL    HW2 6070   4.135   3.336   0.140  1.4816  0.1605  0.6991
 2004SOL     OW 6071   5.044   1.714   3.158  0.2121  0.2518 -0.0513
 2004SOL    HW1 6072   4.952   1.732   3.179 -0.0117  0.0758 -0.8494
 2004SOL    HW2 6073   5.092   1.789   3.193 -0.3407  0.8045 -0.4658
 2005SOL     OW 6074   2.186   1.705   0.938 -0.5627  0.3167 -0.4530
 2005SOL    HW1 6075   2.149   1.713   1.026 -0.9305  2.1268 -0.7184
 2005SOL    HW2 6076   2.199   1.796   0.910  1.4030 -0.2445 -1.5098
 2006SOL     OW 6077   1.079   0.744   0.358 -0.6849 -0.3242  0.0539
 2006SOL    HW1 6078   1.089   0.742   0.453  2.1668  1.0613 -0.0877
 2006SOL    HW2 6079   1.042   0.830   0.339 -0.9445 -0.4685 -0.0867
 2007SOL     OW 6080   0.500   3.628   1.583 -0.1791  0.0499  0.2640
 2007SOL    HW1 6081   0.451   3.667   1.510 -0.6151 -0.3577  0.3324
 2007SOL    HW2 6082   0.476   3.535   1.580  1.3832 -0.3607 -0.3237
 2008SOL     OW 6083   1.659   0.071   0.364 -0.8396 -0.3209 -0.0856
 2008SOL    HW1 6084   1.603   0.074   0.442 -1.7103  0.2437 -0.7130
 2008SOL    HW2 6085   1.604   0.031   0.297 -0.1155 -0.7419 -0.4370
 2009SOL     OW 6086   1.717   0.474   2.370 -0.4335 -0.1147  0.6896
 2009SOL    HW1 6087   1.634   0.439   2.340 -1.1444  1.1833  1.0715
 2009SOL    HW2 6088   1.742   0.416   2.442 -0.2079 -1.4302 -0.4043
 2010SOL     OW 6089   1.532   3.934   2.304  0.1841  0.4332 -0.1366
 2010SOL    HW1 6090   1.494   3.973   2.383  2.0797  0.7847  0.6575
 2010SOL    HW2 6091   1.458   3.925   2.244 -1.2661  0.4085  1.5695
 2011SOL     OW 6092   1.961   4.246   0.568 -0.3100  0.3378 -0.4811
 2011SOL    HW1 6093   2.017   4.241   0.646 -0.8984 -1.5123 -0.1350
 2011SOL    HW2 6094   1.994   4.178   0.511  1.0485  2.5928 -2.5726
 2012SOL     OW 6095   2.056   0.342   3.967 -0.1070 -0.2983  0.3637
 2012SOL    HW1 6096   2.101   0.424   3.947  3.0225 -1.3329  2.2782
 2012SOL    HW2 6097   1.970   0.351   3.928  0.4932  3.4144 -0.4836
 2013SOL     OW 6098   4.874   0.604   2.925  0.5962 -0.3255 -0.0453
 2013SOL    HW1 6099   4.945   0.597   2.989  0.0305 -2.4651  0.4247
 2013SOL    HW2 6100   4.912   0.571   2.843  0.5444 -0.1305 -0.1484
 2014SOL     OW 6101   1.997   2.678   1.886 -0.2717 -0.2812  0.0758
 2014SOL    HW1 6102   1.934   2.636   1.945 -0.4257 -1.4702 -0.8842
 2014SOL    HW2 6103   2.012   2.765   1.924 -1.5417 -0.4381  1.0014
 2015SOL     OW 6104   1.625   3.107   1.051 -0.0578  0.5492 -0.4536
 2015SOL    HW1 6105   1.717   3.099   1.078 -0.4221 -1.4725  0.3819
 2015SOL    HW2 6106   1.616   3.042   0.980 -0.6137  1.4678 -1.2526
 2016SOL     OW 6107   5.281   2.845   0.787 -0.3689  0.7474 -0.5367
 2016SOL    HW1 6108   5.269   2.890   0.871 -1.4998 -0.3887 -0.0645
 2016SOL    HW2 6109   5.325   2.910   0.732  0.6941  1.4141  1.0129
 2017SOL     OW 6110   3.474   1.159   4.314 -0.2975 -0.4697 -0.3127
 2017SOL    HW1 6111   3.542   1.205   4.364 -0.0002 -0.2747 -0.8892
 2017SOL    HW2 6112   3.396   1.164   4.370  0.3346 -1.3141  0.6622
 2018SOL     OW 6113   4.603   5.060   2.487 -0.2991 -0.2738 -0.2763
 2018SOL    HW1 6114   4.678   5.097   2.439 -0.3446 -1.6002 -1.4560
 2018SOL    HW2 6115   4.527   5.105   2.451 -0.2637 -0.7288 -0.9541
 2019SOL     OW 6116   5.108   2.550   1.451 -0.0707 -0.4447 -0.2305
 2019SOL    HW1 6117   5.118   2.595   1.367  0.0764  1.9562  0.9795
 2019SOL    HW2 6118   5.013   2.546   1.465 -0.0851  2.0445  0.8501
 2020SOL     OW 6119   1.670   1.143   2.523 -0.0840 -0.5078  0.3781
 2020SOL    HW1 6120   1.699   1.198   2.596 -0.6503 -1.0344  1.0122
 2020SOL    HW2 6121   1.582   1.173   2.503 -0.1071 -0.6758  0.2272
 2021SOL     OW 6122   1.034   3.394   0.087  0.3701  0.1111  0.1668
 2021SOL    HW1 6123   0.971   3.358   0.024  0.3091  1.1816 -0.4171
 2021SOL    HW2 6124   1.118   3.356   0.060 -0.0913 -1.9832  1.4622
 2022SOL     OW 6125   2.321   1.339   2.072 -0.3508  0.3446  0.4248
 2022SOL    HW1 6126   2.302   1.281   1.999  1.6426 -2.0287  1.6801
 2022SOL    HW2 6127   2.238   1.386   2.087 -1.2654 -0.2591 -2.2625
 2023SOL     OW 6128   1.930   4.636   1.951 -0.0090 -0.4271 -0.2579
 2023SOL    HW1 6129   1.912   4.702   1.884 -1.8933 -0.3379  0.2762
 2023SOL    HW2 6130   2.025   4.631   1.955  0.2251  2.4435 -0.1255
 2024SOL     OW 6131   0.118   3.523   0.697 -0.2570  0.4949 -0.2236
 2024SOL    HW1 6132   0.124   3.477   0.781  0.1521  0.9205 -0.0114
 2024SOL    HW2 6133   0.093   3.456   0.634 -0.1674  0.0874  0.1703
 2025SOL     OW 6134   3.743   0.965   1.256 -0.6184  0.0221  0.2701
 2025SOL    HW1 6135   3.695   0.966   1.173 -0.8588 -1.2085  0.3795
 2025SOL    HW2 6136   3.806   1.036   1.247 -0.6187 -0.1072 -0.9808
 2026SOL     OW 6137   3.214   0.858   1.143 -0.5001  0.0624  0.5279
 2026SOL    HW1 6138   3.217   0.940   1.094  1.0608  0.6481  1.5297
 2026SOL    HW2 6139   3.260   0.877   1.224 -1.9637 -1.2322  1.7137
 2027SOL     OW 6140   0.281   4.133   0.581  0.0866  0.7746  0.0843
 2027SOL    HW1 6141   0.252   4.102   0.495 -1.7187 -0.3624  1.0209
 2027SOL    HW2 6142   0.214   4.100   0.641 -0.0748  3.6237  1.6423
 2028SOL     OW 6143   0.317   3.037   3.661 -0.2591  0.5434  0.5131
 2028SOL    HW1 6144   0.405   3.001   3.674 -1.2601 -1.9920  0.9975
 2028SOL    HW2 6145   0.317   3.066   3.570  0.4749 -1.4580 -0.1966
 2029SOL     OW 6146   2.843   0.628   1.033  0.0488 -0.4435  0.1181
 2029SOL    HW1 6147   2.879   0.657   0.950 -0.3807  0.9677  0.4097
 2029SOL    HW2 6148   2.866   0.698   1.095 -1.5324 -0.4253  0.7121
 2030SOL     OW 6149   4.552   2.183   0.690  0.1892 -0.6879  0.2622
 2030SOL    HW1 6150   4.559   2.262   0.743 -1.4683 -1.0090  1.0014
 2030SOL    HW2 6151   4.569   2.213   0.600  1.0113  0.2213  0.7017
 2031SOL     OW 6152   4.167   0.361   1.537 -0.1653  0.4893 -0.2878
 2031SOL    HW1 6153   4.262   0.367   1.549  0.3251  0.5068 -3.4106
 2031SOL    HW2 6154   4.139   0.451   1.519 -1.1239  0.7521  2.0334
 2032SOL     OW 6155   1.133   1.512   2.633  0.4658  0.6948 -0.2354
 2032SOL    HW1 6156   1.086   1.462   2.566 -1.3777  2.2299 -0.1731
 2032SOL    HW2 6157   1.166   1.590   2.587  0.1875  1.1928  0.3813
 2033SOL     OW 6158   5.033   1.385   1.432  0.1758  0.3658  0.1749
 2033SOL    HW1 6159   5.027   1.328   1.508 -3.4750  1.3102  0.7974
 2033SOL    HW2 6160   5.002   1.331   1.359 -0.7062  0.7456  0.2588
 2034SOL     OW 6161   4.241   3.026   2.110  0.1414  0.3307 -0.1473
 2034SOL    HW1 6162   4.306   3.041   2.179  0.9475  0.1325 -0.8462
 2034SOL    HW2 6163   4.278   2.955   2.057 -0.1213  0.9606 -1.1994
 2035SOL     OW 6164   0.738   4.163   3.471  0.0621 -0.2682 -0.1529
 2035SOL    HW1 6165   0.801   4.098   3.438 -1.2046 -1.2824 -0.6720
 2035SOL    HW2 6166   0.669   4.110   3.512 -0.3578  0.8279  0.5973
 2036SOL     OW 6167   2.917   2.472   1.973 -0.0550 -0.3485 -0.1552
 2036SOL    HW1 6168   2.835   2.520   1.975 -0.2372 -0.6643  1.0382
 2036SOL    HW2 6169   2.906   2.407   1.904 -0.6068 -0.0596 -0.3410
 2037SOL     OW 6170   3.706   4.497   0.346 -0.1707 -0.1618  0.7509
 2037SOL    HW1 6171   3.666   4.530   0.427 -1.4441  2.8838 -0.9392
 2037SOL    HW2 6172   3.634   4.491   0.284  0.9015 -1.6723 -0.4051
 2038SOL     OW 6173   4.479   2.184   0.121 -0.2712  0.5950  0.1425
 2038SOL    HW1 6174   4.438   2.165   0.036  1.5448  1.5145 -1.0063
 2038SOL    HW2 6175   4.553   2.125   0.125 -1.8137 -1.3578  2.3954
 2039SOL     OW 6176   2.510   0.555   1.897 -0.1889  0.3299 -0.4927
 2039SOL    HW1 6177   2.582   0.616   1.881  0.3621 -0.8366 -2.9032
 2039SOL    HW2 6178   2.482   0.528   1.809 -2.7013 -0.2678  0.4094
 2040SOL     OW 6179   2.623   1.756   2.008  0.5611  0.1606  0.4876
 2040SOL    HW1 6180   2.578   1.672   2.002  0.6027  0.2344 -3.1345
 2040SOL    HW2 6181   2.712   1.735   2.036  0.1045 -0.7489  1.3084
 2041SOL     OW 6182   2.045   1.762   3.944 -0.3348  0.0599 -0.1592
 2041SOL    HW1 6183   1.959   1.731   3.917 -0.9095  0.4799  1.1316
 2041SOL    HW2 6184   2.028   1.841   3.995  0.9722  1.3377 -1.6252
 2042SOL     OW 6185   1.814   3.166   3.596  0.0797  0.1937  0.5347
 2042SOL    HW1 6186   1.857   3.246   3.568 -2.3269  1.4863  0.3160
 2042SOL    HW2 6187   1.802   3.177   3.691  0.8010 -0.4603  0.7117
 2043SOL     OW 6188   3.274   2.819   1.473  0.1856 -0.3321  0.3469
 2043SOL    HW1 6189   3.199   2.871   1.503  0.2195  0.5372 -0.9994
 2043SOL    HW2 6190   3.235   2.739   1.438 -0.0304 -0.3196  0.5501
 2044SOL     OW 6191   1.067   0.796   1.952  0.0529  0.1137  0.1288
 2044SOL    HW1 6192   1.103   0.875   1.913  1.1648 -0.9177 -1.0484
 2044SOL    HW2 6193   1.097   0.798   2.043  1.5823  0.1921 -0.3490
 2045SOL     OW 6194   4.922   4.849   1.972 -0.0351 -0.3492 -0.3783
 2045SOL    HW1 6195   4.962   4.862   1.886 -1.4634  1.6189 -0.8288
 2045SOL    HW2 6196   4.954   4.764   2.001  2.7076  0.1594 -1.5969
 2046SOL     OW 6197   4.773   3.213   1.388  0.1732 -0.1271  0.1058
 2046SOL    HW1 6198   4.743   3.168   1.467 -0.9416  0.2711 -0.0712
 2046SOL    HW2 6199   4.739   3.302   1.396  0.6429  0.1166 -0.4983
 2047SOL     OW 6200   2.826   3.158   2.862  0.0393  0.4091 -0.2051
 2047SOL    HW1 6201   2.814   3.116   2.776  1.7579 -1.0529  0.2151
 2047SOL    HW2 6202   2.899   3.111   2.902  0.1057  1.8987  1.5613
 2048SOL     OW 6203   3.196   2.090   1.708 -0.1535 -0.3735  0.6284
 2048SOL    HW1 6204   3.155   2.066   1.625 -1.5350 -2.3476  1.7999
 2048SOL    HW2 6205   3.212   2.184   1.701 -1.3462 -0.2681 -1.3790
 2049SOL     OW 6206   0.290   4.659   4.190 -0.2892  0.1000 -0.1068
 2049SOL    HW1 6207   0.380   4.631   4.178  0.4462  1.9177  0.6988
 2049SOL    HW2 6208   0.260   4.685   4.103  0.6693  1.3380 -0.0941
 2050SOL     OW 6209   2.874   1.263   0.997  0.4727  0.5902  0.7993
 2050SOL    HW1 6210   2.795   1.316   1.001  0.0467  0.0151  0.1369
 2050SOL    HW2 6211   2.946   1.326   0.993 -0.0650  1.1414 -0.9136
 2051SOL     OW 6212   3.993   4.709   0.911 -0.6202  0.2804  0.2102
 2051SOL    HW1 6213   3.899   4.695   0.914 -0.5077 -0.4778  0.3243
 2051SOL    HW2 6214   4.018   4.725   1.002 -0.4565 -0.8060  0.3690
 2052SOL     OW 6215   4.930   3.279   3.658 -0.2345 -0.6345 -0.2684
 2052SOL    HW1 6216   4.956   3.363   3.620  0.4950 -0.7042  0.0630
 2052SOL    HW2 6217   4.986   3.215   3.613 -0.7402 -0.9382 -0.4707
 2053SOL     OW 6218   4.140   0.948   3.434  0.3686 -0.4006 -0.0464
 2053SOL    HW1 6219   4.120   1.042   3.441  0.2208 -0.5323  2.1950
 2053SOL    HW2 6220   4.203   0.943   3.362  1.0364  1.5578  0.3099
 2054SOL     OW 6221   4.785   1.355   2.700 -0.0617  0.6101  0.0935
 2054SOL    HW1 6222   4.751   1.387   2.784  0.8849  0.4693  0.5380
 2054SOL    HW2 6223   4.748   1.267   2.691 -2.0069  1.4611 -0.7388
 2055SOL     OW 6224   5.002   2.257   0.237 -0.0923 -0.0869 -0.0717
 2055SOL    HW1 6225   4.976   2.234   0.326 -1.5074  3.0687  0.4852
 2055SOL    HW2 6226   5.061   2.331   0.247  0.6425 -0.3795 -1.7655
 2056SOL     OW 6227   3.797   4.437   3.618  0.5817  0.1942  0.1835
 2056SOL    HW1 6228   3.883   4.479   3.609  0.1997  0.7826 -1.0073
 2056SOL    HW2 6229   3.764   4.467   3.702  0.3679  2.2590 -0.5769
 2057SOL     OW 6230   0.940   3.790   0.214  0.2343  0.3189 -0.0719
 2057SOL    HW1 6231   0.902   3.873   0.185 -0.4586  0.0530  0.0450
 2057SOL    HW2 6232   0.918   3.728   0.144  2.5483  0.6553 -1.1770
 2058SOL     OW 6233   2.004   1.543   0.082 -0.3946  0.1905  0.4068
 2058SOL    HW1 6234   1.920   1.587   0.069 -1.0115 -0.9134  0.5256
 2058SOL    HW2 6235   2.008   1.525   0.175  1.3067  2.7478  0.9497
 2059SOL     OW 6236   2.311   3.984   0.741  0.2463  0.3505 -0.5621
 2059SOL    HW1 6237   2.388   3.991   0.798  0.8852 -0.5785 -1.2815
 2059SOL    HW2 6238   2.290   3.891   0.741  0.1124  0.3683 -1.6480
 2060SOL     OW 6239   4.354   4.571   0.181 -0.7888  0.0529 -0.1205
 2060SOL    HW1 6240   4.331   4.660   0.208  0.0656  0.2871 -0.1431
 2060SOL    HW2 6241   4.373   4.578   0.087  0.7426  0.1642  0.1704
 2061SOL     OW 6242   3.360   0.198   1.778  0.0540 -0.2400  0.2870
 2061SOL    HW1 6243   3.325   0.237   1.698 -2.8871  0.1884  1.6489
 2061SOL    HW2 6244   3.438   0.250   1.798 -0.0846  0.6981 -1.3998
 2062SOL     OW 6245   1.475   3.024   0.056  0.0947  0.2589  0.1140
 2062SOL    HW1 6246   1.554   3.074   0.077  1.3036 -1.0451 -1.0526
 2062SOL    HW2 6247   1.436   3.003   0.141  1.7169 -0.1248  0.8053
 2063SOL     OW 6248   0.282   1.452   2.961 -0.0371  0.0255 -0.3044
 2063SOL    HW1 6249   0.319   1.535   2.931  1.6794 -0.5885 -0.0002
 2063SOL    HW2 6250   0.226   1.476   3.035 -0.5715  1.0287 -1.0036
 2064SOL     OW 6251   1.236   3.366   1.160 -0.4981 -0.1397  0.3561
 2064SOL    HW1 6252   1.149   3.376   1.200 -0.5831 -0.5845  0.2886
 2064SOL    HW2 6253   1.224   3.397   1.070 -1.0620 -1.8753 -0.2118
 2065SOL     OW 6254   2.323   2.852   1.034  0.0053 -0.0245 -0.6835
 2065SOL    HW1 6255   2.293   2.890   0.951 -1.0026  0.5420 -0.0840
 2065SOL    HW2 6256   2.370   2.924   1.077 -0.1997 -0.0605 -0.4015
 2066SOL     OW 6257   2.914   4.017   3.957 -0.1742  0.6381 -0.0947
 2066SOL    HW1 6258   2.949   4.012   3.868 -0.6995  1.0731 -0.3305
 2066SOL    HW2 6259   2.893   4.110   3.969  1.5260  0.9254  1.1091
 2067SOL     OW 6260   4.259   1.259   2.292 -0.9267 -0.0411  0.3381
 2067SOL    HW1 6261   4.246   1.206   2.371 -0.9299 -1.0743 -0.3317
 2067SOL    HW2 6262   4.239   1.199   2.220 -0.3408  0.7060 -0.4663
 2068SOL     OW 6263   1.680   4.328   3.952  0.0790  0.2900 -0.0139
 2068SOL    HW1 6264   1.703   4.366   3.867  1.1057 -0.6567 -0.1790
 2068SOL    HW2 6265   1.747   4.361   4.011 -1.2005  1.7632  0.6896
 2069SOL     OW 6266   3.570   3.367   1.778 -0.1628 -0.5121 -0.1345
 2069SOL    HW1 6267   3.570   3.363   1.874 -2.2956 -0.6450 -0.0815
 2069SOL    HW2 6268   3.590   3.459   1.758  0.3896 -0.5023  0.4269
 2070SOL     OW 6269   5.281   4.198   0.031 -0.1050  0.0190 -0.2188
 2070SOL    HW1 6270   5.210   4.140   0.058  0.8980 -0.8348  0.7206
 2070SOL    HW2 6271   5.239   4.265  -0.023 -1.7287 -0.0385  0.9022
 2071SOL     OW 6272   1.315   1.383   0.857 -0.4983 -0.3118  0.0878
 2071SOL    HW1 6273   1.305   1.445   0.784  0.0045  0.6170  0.7888
 2071SOL    HW2 6274   1.293   1.298   0.819  0.5035  0.0389 -1.3540
 2072SOL     OW 6275   4.069   0.610   1.398  0.5953 -0.1189 -0.8346
 2072SOL    HW1 6276   4.093   0.700   1.381  2.3985 -0.4407 -0.2110
 2072SOL    HW2 6277   4.042   0.575   1.313  0.7479  0.7559 -1.2475
 2073SOL     OW 6278   4.717   0.486   3.676 -0.9810  0.0569  0.2716
 2073SOL    HW1 6279   4.695   0.428   3.749 -2.1970 -0.2809 -0.3322
 2073SOL    HW2 6280   4.644   0.475   3.614 -0.0361  0.4129 -0.9435
 2074SOL     OW 6281   1.965   1.542   2.148 -0.3189  0.7212  0.6547
 2074SOL    HW1 6282   2.019   1.588   2.084  0.7376 -0.0431  0.9873
 2074SOL    HW2 6283   2.009   1.555   2.232 -0.5284 -0.0914  0.9014
 2075SOL     OW 6284   0.770   2.941   4.339  0.1839  0.0471  0.4130
 2075SOL    HW1 6285   0.678   2.918   4.331 -0.1486  0.8884  1.6033
 2075SOL    HW2 6286   0.777   2.985   4.424  1.7763 -0.4685  0.5874
 2076SOL     OW 6287   2.718   3.548   2.105  0.2102 -0.4468  0.4593
 2076SOL    HW1 6288   2.760   3.624   2.144 -0.3301 -0.7232  1.6324
 2076SOL    HW2 6289   2.640   3.583   2.062  1.1089 -0.0619 -0.9189
 2077SOL     OW 6290   1.964   4.954   3.401  0.4111  0.0476  0.3502
 2077SOL    HW1 6291   1.909   5.011   3.454  1.9947 -0.1994  2.3821
 2077SOL    HW2 6292   1.965   4.996   3.315 -1.4639  1.0041  0.7334
 2078SOL     OW 6293   3.908   1.253   2.948  0.2635 -0.5596  0.2323
 2078SOL    HW1 6294   3.820   1.266   2.984  1.0829 -0.4130  2.2992
 2078SOL    HW2 6295   3.893   1.220   2.859 -1.8820 -1.2136  0.7796
 2079SOL     OW 6296   5.280   1.833   0.418 -0.0096 -0.1722  0.0255
 2079SOL    HW1 6297   5.240   1.915   0.393  1.6064  0.0220 -2.2338
 2079SOL    HW2 6298   5.359   1.858   0.466 -0.5335 -0.4812  1.0896
 2080SOL     OW 6299   4.426   3.527   4.125  0.4636  0.2825 -0.0351
 2080SOL    HW1 6300   4.467   3.463   4.067 -0.1858  1.1957 -1.5622
 2080SOL    HW2 6301   4.407   3.602   4.068 -4.7391 -0.5700  0.0563
 2081SOL     OW 6302   0.981   1.017   1.126 -0.0029  0.3647 -0.2155
 2081SOL    HW1 6303   0.966   1.085   1.193 -0.5394 -0.3654  0.4235
 2081SOL    HW2 6304   0.905   1.025   1.068 -1.3456 -1.2372  1.2214
 2082SOL     OW 6305   0.656   2.131   2.297 -0.0826 -0.0276 -0.2861
 2082SOL    HW1 6306   0.579   2.188   2.292 -0.0193  0.1639  0.7400
 2082SOL    HW2 6307   0.624   2.045   2.268 -0.2053  0.4698 -1.7302
 2083SOL     OW 6308   4.500   2.575   1.166 -0.2320  0.8238 -0.1514
 2083SOL    HW1 6309   4.512   2.480   1.156 -2.1947  0.6402 -1.4418
 2083SOL    HW2 6310   4.531   2.594   1.254 -2.0474 -1.5120  1.1281
 2084SOL     OW 6311   4.446   0.490   4.179  0.1467  0.3440  0.6955
 2084SOL    HW1 6312   4.519   0.475   4.239  0.9759  0.4727 -0.2511
 2084SOL    HW2 6313   4.379   0.427   4.206  1.0905 -0.6333  0.8180
 2085SOL     OW 6314   4.570   1.191   0.454  0.0562 -0.5181 -0.0560
 2085SOL    HW1 6315   4.547   1.239   0.375 -1.7938  0.2591  0.8812
 2085SOL    HW2 6316   4.546   1.100   0.435  0.7828 -0.5685 -0.7889
 2086SOL     OW 6317   0.572   2.421   1.313 -0.1631  0.2455 -0.2015
 2086SOL    HW1 6318   0.499   2.481   1.299 -0.5996 -0.2904 -0.2884
 2086SOL    HW2 6319   0.535   2.351   1.367 -0.4106 -1.2665 -2.1995
 2087SOL     OW 6320   2.425   2.872   3.143  0.4034  0.0893  0.4936
 2087SOL    HW1 6321   2.458   2.949   3.190  2.7554 -0.2972 -0.3471
 2087SOL    HW2 6322   2.496   2.850   3.082 -0.2079 -2.6998  0.6454
 2088SOL     OW 6323   1.534   2.255   2.124 -0.0900 -0.0288 -0.1507
 2088SOL    HW1 6324   1.512   2.258   2.217  1.2891 -0.1420  0.2057
 2088SOL    HW2 6325   1.514   2.165   2.097  1.5564 -0.6508  0.6032
 2089SOL     OW 6326   3.300   4.935   3.804  0.3216 -0.2384  0.3445
 2089SOL    HW1 6327   3.312   4.847   3.767 -1.5437 -0.7158  0.7470
 2089SOL    HW2 6328   3.381   4.981   3.783  1.1332 -1.8825 -0.3555
 2090SOL     OW 6329   2.190   1.147   3.465 -0.1337 -0.1598 -0.1517
 2090SOL    HW1 6330   2.188   1.242   3.456  0.6569 -0.0970  0.2558
 2090SOL    HW2 6331   2.266   1.120   3.414 -1.6335 -0.8219 -2.1890
 2091SOL     OW 6332   0.388   4.836   4.390 -0.3345  0.2308 -0.0850
 2091SOL    HW1 6333   0.354   4.778   4.321 -0.8513  0.4277  0.0038
 2091SOL    HW2 6334   0.344   4.807   4.470  0.9718 -0.6234  0.3555
 2092SOL     OW 6335   3.385   1.689   4.450 -0.2340  0.0377  0.5104
 2092SOL    HW1 6336   3.362   1.773   4.488 -0.3240  0.7575 -1.0367
 2092SOL    HW2 6337   3.370   1.625   4.519 -0.6644  1.2315  1.5442
 2093SOL     OW 6338   1.235   4.365   4.453 -0.7782  0.1027 -0.4001
 2093SOL    HW1 6339   1.268   4.414   4.378 -0.0029 -1.2871 -0.9934
 2093SOL    HW2 6340   1.140   4.366   4.442 -0.6787  0.0113 -1.3311
 2094SOL     OW 6341   0.056   3.634   1.353 -0.1553  0.2647 -0.5302
 2094SOL    HW1 6342  -0.003   3.703   1.385  0.5990  0.5896  0.1820
 2094SOL    HW2 6343   0.115   3.679   1.292 -1.0660 -0.1960 -1.7906
 2095SOL     OW 6344   3.395   2.800   4.268  0.0153 -0.5308  0.4216
 2095SOL    HW1 6345   3.395   2.887   4.229 -0.8341 -0.5748  0.3018
 2095SOL    HW2 6346   3.447   2.747   4.208 -1.5927 -0.6876 -0.9152
 2096SOL     OW 6347   4.903   5.002   3.275 -0.6094  0.1876 -0.4412
 2096SOL    HW1 6348   4.854   4.921   3.291 -2.0241  1.0498 -0.1749
 2096SOL    HW2 6349   4.880   5.026   3.185  0.7858 -0.3383 -0.9510
 2097SOL     OW 6350   4.955   2.630   1.107  0.1114 -0.0099 -0.0970
 2097SOL    HW1 6351   5.030   2.624   1.049  0.4089 -0.2484  0.3037
 2097SOL    HW2 6352   4.934   2.539   1.128  1.2906  0.1075  1.7862
 2098SOL     OW 6353   2.638   3.023   0.548 -0.2580  0.0116  0.2469
 2098SOL    HW1 6354   2.716   2.969   0.562  0.7716  0.6616 -2.3257
 2098SOL    HW2 6355   2.663   3.082   0.476 -2.3006  1.9691  1.0238
 2099SOL     OW 6356   5.447   4.628   3.798  0.2378  0.5253  0.0448
 2099SOL    HW1 6357   5.539   4.609   3.818 -0.1239 -0.4208  0.9372
 2099SOL    HW2 6358   5.430   4.712   3.841  1.0583  1.4594 -1.3848
 2100SOL     OW 6359   3.478   1.827   2.277 -0.4531  0.1863  0.2467
 2100SOL    HW1 6360   3.504   1.747   2.324 -0.7929  0.7182  1.3692
 2100SOL    HW2 6361   3.557   1.855   2.232 -0.7338 -1.6927 -1.5495
 2101SOL     OW 6362   5.034   3.715   4.125  0.1762  0.0164 -0.0334
 2101SOL    HW1 6363   5.073   3.768   4.195 -0.8089  0.9215 -0.1519
 2101SOL    HW2 6364   4.945   3.697   4.156  0.2084 -0.7975 -0.4119
 2102SOL     OW 6365   2.942   3.409   2.886 -0.7299 -0.2383  0.6294
 2102SOL    HW1 6366   2.858   3.456   2.884 -1.6561 -1.8512 -0.2173
 2102SOL    HW2 6367   2.918   3.317   2.894  0.9075 -0.9133 -1.4240
 2103SOL     OW 6368   0.008   4.434   1.264 -0.0692  0.5326 -0.1755
 2103SOL    HW1 6369   0.030   4.507   1.207 -0.2416  0.7167 -0.0071
 2103SOL    HW2 6370  -0.044   4.473   1.335 -0.1838  0.2454 -0.0998
 2104SOL     OW 6371   1.301   3.196   2.922  0.3834 -0.5301 -0.4677
 2104SOL    HW1 6372   1.209   3.213   2.903 -0.0591 -2.5680 -0.3742
 2104SOL    HW2 6373   1.346   3.215   2.840  0.1195  1.7712 -0.1429
 2105SOL     OW 6374   2.521   0.606   0.111  0.0166  0.2883 -0.4751
 2105SOL    HW1 6375   2.457   0.590   0.042  0.4057  2.7643 -1.5253
 2105SOL    HW2 6376   2.477   0.664   0.172  1.1516  1.9802 -1.1837
 2106SOL     OW 6377   3.947   0.096   0.641 -0.4023 -0.4599  0.4271
 2106SOL    HW1 6378   4.029   0.115   0.594 -1.3486  0.0006 -1.1216
 2106SOL    HW2 6379   3.975   0.073   0.730  1.2765  1.8943  0.6166
 2107SOL     OW 6380   2.785   1.806   0.763  0.4949  0.0123  0.2327
 2107SOL    HW1 6381   2.702   1.759   0.772  1.7382 -2.5003 -0.5098
 2107SOL    HW2 6382   2.787   1.835   0.672  1.0914 -1.3841 -0.2276
 2108SOL     OW 6383   4.496   3.240   2.082 -0.2594 -0.2363  0.3447
 2108SOL    HW1 6384   4.466   3.202   2.165 -0.1769  0.0855  0.5220
 2108SOL    HW2 6385   4.486   3.169   2.018 -1.0628 -0.2433  0.4750
 2109SOL     OW 6386   0.966   2.754   4.271  0.0498  0.1753  0.4015
 2109SOL    HW1 6387   0.890   2.805   4.299  0.2340  0.8545 -0.2922
 2109SOL    HW2 6388   0.955   2.668   4.312  0.8167  1.3698  3.3600
 2110SOL     OW 6389   2.782   1.113   0.606 -0.0822  0.0813  0.0476
 2110SOL    HW1 6390   2.768   1.111   0.511 -0.9431  2.0484  0.0939
 2110SOL    HW2 6391   2.762   1.024   0.635 -0.1508 -0.4538 -1.5682
 2111SOL     OW 6392   1.713   3.282   2.696 -0.2334  0.2893  0.1071
 2111SOL    HW1 6393   1.670   3.294   2.612 -1.1694 -0.3516  0.4816
 2111SOL    HW2 6394   1.658   3.330   2.758  0.0876  0.2169  0.4529
 2112SOL     OW 6395   1.124   2.596   4.113 -0.4667 -0.3342  0.5272
 2112SOL    HW1 6396   1.180   2.551   4.176 -0.6829 -0.1458  0.8643
 2112SOL    HW2 6397   1.062   2.645   4.168 -1.9336 -1.7240  0.1729
 2113SOL     OW 6398   1.428   1.750   3.256 -0.0567  0.2523  0.0953
 2113SOL    HW1 6399   1.334   1.765   3.246 -0.0782  0.5244  0.7105
 2113SOL    HW2 6400   1.435   1.668   3.304  0.0454 -0.5952 -1.3056
 2114SOL     OW 6401   2.347   2.421   3.813  0.9015  0.3412  0.0099
 2114SOL    HW1 6402   2.335   2.377   3.729  1.2165  0.6138 -0.1826
 2114SOL    HW2 6403   2.353   2.350   3.876  0.6503  0.1336 -0.1974
 2115SOL     OW 6404   1.798   2.829   3.072 -0.3936 -0.2629  0.5220
 2115SOL    HW1 6405   1.717   2.872   3.044  0.5003  0.7993 -0.5617
 2115SOL    HW2 6406   1.794   2.828   3.167 -1.4192  0.3101  0.4915
 2116SOL     OW 6407   0.985   3.147   4.139 -1.1417  0.2053  0.0468
 2116SOL    HW1 6408   1.000   3.080   4.205  0.0920  0.8240  0.4266
 2116SOL    HW2 6409   1.052   3.214   4.157 -0.9467  0.5066 -1.6632
 2117SOL     OW 6410   2.046   0.440   4.461 -0.2037 -0.1367 -0.7661
 2117SOL    HW1 6411   2.005   0.491   4.530  1.4974 -0.2699  0.3945
 2117SOL    HW2 6412   2.010   0.476   4.380 -0.7349  1.3727  0.0991
 2118SOL     OW 6413   4.654   4.373   4.122 -0.1718 -0.2389 -0.6214
 2118SOL    HW1 6414   4.727   4.344   4.067 -0.3919  0.7491 -1.4820
 2118SOL    HW2 6415   4.636   4.462   4.092  0.4371  0.7981  1.8418
 2119SOL     OW 6416   5.125   4.091   3.534 -0.1969 -0.6540 -0.3967
 2119SOL    HW1 6417   5.185   4.080   3.460  0.2645  0.0379 -0.1251
 2119SOL    HW2 6418   5.137   4.012   3.587  1.1304 -0.1160  0.1255
 2120SOL     OW 6419   2.368   3.036   0.576 -0.1362 -0.0130  0.3628
 2120SOL    HW1 6420   2.461   3.022   0.593 -0.0896 -1.2676 -0.7847
 2120SOL    HW2 6421   2.360   3.131   0.562  0.8123  0.2114  1.2280
 2121SOL     OW 6422   0.425   0.202   0.013  0.3922 -0.0976  0.2950
 2121SOL    HW1 6423   0.453   0.251   0.090 -0.6945  1.6693 -0.3628
 2121SOL    HW2 6424   0.433   0.265  -0.059  1.2783 -1.6619 -1.0441
 2122SOL     OW 6425   4.471   4.029   0.112  1.0478 -0.6503 -0.4478
 2122SOL    HW1 6426   4.410   4.100   0.133 -0.2534 -1.0745 -2.4478
 2122SOL    HW2 6427   4.516   4.011   0.194  1.5808  2.5813  0.1104
 2123SOL     OW 6428   1.592   2.608   0.663  0.1105  0.1889  0.1818
 2123SOL    HW1 6429   1.617   2.516   0.659 -0.2993 -0.1072  2.8620
 2123SOL    HW2 6430   1.564   2.629   0.574  0.1407 -2.2908 -0.4822
 2124SOL     OW 6431   5.336   4.079   3.376  0.4214 -0.1051 -0.3389
 2124SOL    HW1 6432   5.316   4.129   3.297  1.1152  1.0973  0.2277
 2124SOL    HW2 6433   5.419   4.114   3.407  0.3087 -0.7638  0.7686
 2125SOL     OW 6434   1.461   1.508   3.380 -0.3564 -0.0097  0.1616
 2125SOL    HW1 6435   1.471   1.447   3.306  1.8345  1.0067 -0.4701
 2125SOL    HW2 6436   1.525   1.478   3.444  0.0790  1.0622  0.2424
 2126SOL     OW 6437   1.807   2.850   3.375 -0.0421 -0.3737  0.2543
 2126SOL    HW1 6438   1.875   2.886   3.432  0.6842 -0.3667 -0.5909
 2126SOL    HW2 6439   1.740   2.919   3.372  0.0600 -0.2423  0.8270
 2127SOL     OW 6440   3.591   3.401   0.268 -0.1639 -0.4286 -0.1522
 2127SOL    HW1 6441   3.558   3.387   0.179  1.0656 -0.1763 -0.6678
 2127SOL    HW2 6442   3.588   3.495   0.281 -0.9286 -0.5143  0.3139
 2128SOL     OW 6443   3.047   4.020   3.262 -0.6109 -0.2325 -0.6263
 2128SOL    HW1 6444   3.025   4.018   3.169 -0.9147 -0.1692 -0.5558
 2128SOL    HW2 6445   3.101   4.098   3.272  0.5743 -0.9755 -1.0010
 2129SOL     OW 6446   0.330   2.672   1.436 -0.5956 -0.7218 -0.2551
 2129SOL    HW1 6447   0.404   2.667   1.496 -0.8381  1.5476  0.3138
 2129SOL    HW2 6448   0.285   2.588   1.447  0.0858 -0.8753  1.7941
 2130SOL     OW 6449   4.841   0.105   2.731 -0.1322  0.6360 -0.2690
 2130SOL    HW1 6450   4.879   0.102   2.819 -0.9309  0.1191  0.0743
 2130SOL    HW2 6451   4.753   0.140   2.744 -0.6470 -0.4589 -0.7037
 2131SOL     OW 6452   0.335   1.974   1.461  0.0333 -0.1811  0.4423
 2131SOL    HW1 6453   0.360   1.924   1.539 -0.1597 -0.5381  0.2751
 2131SOL    HW2 6454   0.240   1.974   1.462 -0.0029 -1.5451 -0.6499
 2132SOL     OW 6455   2.369   2.526   4.238 -0.0117 -0.0516  0.4561
 2132SOL    HW1 6456   2.391   2.434   4.254  0.4308  0.0352  0.3449
 2132SOL    HW2 6457   2.451   2.566   4.210 -0.2526  0.3309  0.2924
 2133SOL     OW 6458   2.400   3.815   2.311  0.3732 -0.0531  0.7207
 2133SOL    HW1 6459   2.467   3.770   2.260  0.0181 -0.1201  0.3060
 2133SOL    HW2 6460   2.336   3.747   2.332 -0.2999  0.2979 -0.1338
 2134SOL     OW 6461   4.961   0.166   0.673  0.1786 -0.3603 -0.5359
 2134SOL    HW1 6462   4.918   0.236   0.722  1.2065 -1.0006  1.3350
 2134SOL    HW2 6463   4.895   0.097   0.667 -0.4479  0.2831 -1.4023
 2135SOL     OW 6464   5.355   1.348   1.143 -0.0756 -0.2034  0.0384
 2135SOL    HW1 6465   5.273   1.370   1.100 -1.3438 -1.9856  1.4124
 2135SOL    HW2 6466   5.335   1.352   1.236  1.1806 -1.3925  0.3866
 2136SOL     OW 6467   1.525   3.947   3.697  0.1524 -0.2208  0.0676
 2136SOL    HW1 6468   1.486   3.873   3.743 -0.1216 -0.9138 -1.2233
 2136SOL    HW2 6469   1.550   4.008   3.766 -3.1522  0.2578  0.9985
 2137SOL     OW 6470   2.065   3.540   3.090  0.1869  0.4458  0.2370
 2137SOL    HW1 6471   1.983   3.515   3.047  0.3932  1.2657 -0.6494
 2137SOL    HW2 6472   2.038   3.605   3.155  0.0722  0.3127  0.3251
 2138SOL     OW 6473   1.539   4.951   0.933 -0.2506  0.0765  0.2373
 2138SOL    HW1 6474   1.489   4.884   0.887  0.6831  0.2362 -1.0607
 2138SOL    HW2 6475   1.485   4.974   1.008 -1.1939 -1.1694 -0.0323
 2139SOL     OW 6476   1.212   1.745   2.520  0.4887  0.3184 -0.0704
 2139SOL    HW1 6477   1.128   1.789   2.534  0.4804 -0.1365  1.5745
 2139SOL    HW2 6478   1.277   1.806   2.555  0.8518  0.6694 -1.3376
 2140SOL     OW 6479   1.779   2.471   1.515  0.0150  0.1874 -0.3346
 2140SOL    HW1 6480   1.852   2.448   1.457  0.3249 -1.7022  0.7149
 2140SOL    HW2 6481   1.817   2.468   1.603 -0.7403  1.7510  0.0703
 2141SOL     OW 6482   3.770   4.050   3.242  0.7138 -0.2917  0.3480
 2141SOL    HW1 6483   3.676   4.056   3.225  0.9771  0.3182 -1.0717
 2141SOL    HW2 6484   3.777   4.007   3.327 -0.8044 -2.0031 -0.3307
 2142SOL     OW 6485   3.166   2.021   3.813  0.3881 -0.7804  0.0291
 2142SOL    HW1 6486   3.261   2.022   3.826  0.6565  0.6182 -1.6435
 2142SOL    HW2 6487   3.138   2.111   3.831 -0.4474 -0.8914 -0.6282
 2143SOL     OW 6488   2.571   0.572   1.137  0.1214  0.2607  0.0449
 2143SOL    HW1 6489   2.519   0.641   1.096  1.0343  0.4283 -0.8767
 2143SOL    HW2 6490   2.662   0.600   1.124  0.4762 -0.5333  0.7194
 2144SOL     OW 6491   4.290   2.346   1.501  0.5115  0.1574 -0.1759
 2144SOL    HW1 6492   4.273   2.263   1.455  1.8791  0.2981 -0.9823
 2144SOL    HW2 6493   4.236   2.410   1.455 -0.3765 -0.2189  0.3047
 2145SOL     OW 6494   4.291   5.000   3.545 -0.0457 -0.3007 -0.4573
 2145SOL    HW1 6495   4.324   4.937   3.481  0.0131  1.9721 -2.8316
 2145SOL    HW2 6496   4.366   5.017   3.602  0.2771 -1.4456 -0.5129
 2146SOL     OW 6497   2.375   2.163   3.990  0.5330 -0.0058 -0.1111
 2146SOL    HW1 6498   2.393   2.073   4.020 -0.3315 -0.3818 -0.6895
 2146SOL    HW2 6499   2.280   2.170   3.990  0.5577  0.5343 -1.1638
 2147SOL     OW 6500   4.525   3.995   0.441  0.2280 -0.2098  0.0572
 2147SOL    HW1 6501   4.571   4.077   0.452  0.2984 -0.3492  0.9080
 2147SOL    HW2 6502   4.593   3.931   0.419  0.3996 -0.3384  0.9250
 2148SOL     OW 6503   4.840   1.306   3.640  0.6136 -0.2331 -0.3277
 2148SOL    HW1 6504   4.875   1.218   3.654  2.4397  0.4181 -0.5097
 2148SOL    HW2 6505   4.810   1.307   3.549  0.1372 -0.7965 -0.1802
 2149SOL     OW 6506   0.813   2.567   1.676  0.0743  0.1065 -0.9234
 2149SOL    HW1 6507   0.821   2.485   1.627  0.0046 -1.5369  1.6214
 2149SOL    HW2 6508   0.901   2.583   1.710 -0.5911 -0.9843  1.5504
 2150SOL     OW 6509   4.647   1.507   1.604 -0.1016  0.1337 -0.3096
 2150SOL    HW1 6510   4.663   1.596   1.573  2.1131 -0.5779 -1.4721
 2150SOL    HW2 6511   4.618   1.460   1.525 -0.0320 -0.4415  0.0051
 2151SOL     OW 6512   1.397   5.096   4.143  0.1259  0.0100 -0.3240
 2151SOL    HW1 6513   1.311   5.095   4.185 -0.4171  0.4204 -1.3732
 2151SOL    HW2 6514   1.459   5.113   4.214 -0.6589 -0.3156  0.4484
 2152SOL     OW 6515   5.361   2.504   2.985 -0.1447  0.7262  0.2126
 2152SOL    HW1 6516   5.385   2.469   3.071 -1.5827  1.6630  1.0412
 2152SOL    HW2 6517   5.344   2.426   2.931 -4.2425 -0.1119  2.2745
 2153SOL     OW 6518   4.959   3.705   2.619 -0.0500 -0.1601  0.4390
 2153SOL    HW1 6519   4.915   3.657   2.689 -2.3146  0.1769 -0.6712
 2153SOL    HW2 6520   4.919   3.791   2.620  1.7539  0.7183  0.3737
 2154SOL     OW 6521   4.715   0.562   0.575 -0.6388  0.4322 -0.5541
 2154SOL    HW1 6522   4.746   0.623   0.642 -0.6579 -0.1125 -0.0377
 2154SOL    HW2 6523   4.664   0.616   0.515  1.0917  1.3055 -1.2999
 2155SOL     OW 6524   3.566   4.044   1.750  0.0285 -0.6660  0.3768
 2155SOL    HW1 6525   3.639   3.999   1.793 -0.2595 -1.1171  0.3996
 2155SOL    HW2 6526   3.488   4.012   1.795 -0.1172  0.8209  1.2590
 2156SOL     OW 6527   1.297   0.446   0.817 -0.5416 -0.1232 -0.4589
 2156SOL    HW1 6528   1.371   0.405   0.861 -0.5709  1.0121  0.7164
 2156SOL    HW2 6529   1.221   0.394   0.842 -0.8148  1.4370  2.2864
 2157SOL     OW 6530   4.865   2.818   3.668  0.0300  0.3356 -0.2305
 2157SOL    HW1 6531   4.844   2.726   3.682 -1.0939  0.5008 -0.7064
 2157SOL    HW2 6532   4.946   2.817   3.617 -1.1111 -0.4657 -2.1238
 2158SOL     OW 6533   3.906   0.119   4.037  0.1457 -0.3443 -0.1113
 2158SOL    HW1 6534   3.832   0.135   3.979  0.9486  1.0889 -0.8005
 2158SOL    HW2 6535   3.873   0.138   4.125  0.1378  2.1751 -0.5867
 2159SOL     OW 6536   0.501   4.701   1.274  0.2214 -0.5316 -0.1974
 2159SOL    HW1 6537   0.477   4.701   1.182 -1.4421 -0.2400  0.1993
 2159SOL    HW2 6538   0.470   4.617   1.307  1.5181 -0.9777 -0.0461
 2160SOL     OW 6539   2.394   4.506   4.261  0.5395  0.2500  0.2028
 2160SOL    HW1 6540   2.319   4.449   4.279  1.4007 -0.3669  2.1167
 2160SOL    HW2 6541   2.374   4.546   4.177 -1.4453 -0.6896  0.1687
 2161SOL     OW 6542   0.659   3.354   3.110  0.3703 -0.2001 -0.4165
 2161SOL    HW1 6543   0.574   3.312   3.094 -0.2395 -0.0028  1.9931
 2161SOL    HW2 6544   0.715   3.285   3.144  0.8224 -0.0680 -0.8795
 2162SOL     OW 6545   3.131   3.670   2.666  0.1503 -0.2216  0.6789
 2162SOL    HW1 6546   3.149   3.746   2.720 -3.3207  1.5474 -0.3236
 2162SOL    HW2 6547   3.146   3.700   2.576 -0.5343 -0.9210  0.3108
 2163SOL     OW 6548   1.898   4.740   2.551 -0.0638 -0.0473  0.1458
 2163SOL    HW1 6549   1.865   4.829   2.543 -0.3390 -0.2060 -0.6892
 2163SOL    HW2 6550   1.831   4.694   2.601  0.2938  0.3144  0.9673
 2164SOL     OW 6551   5.273   5.122   3.132 -0.2530 -0.2587  0.2067
 2164SOL    HW1 6552   5.352   5.175   3.122 -0.0480 -0.7648 -1.1718
 2164SOL    HW2 6553   5.264   5.109   3.226 -0.0524  1.8024  0.5483
 2165SOL     OW 6554   0.954   1.183   3.038  0.7873 -0.2638 -0.3899
 2165SOL    HW1 6555   0.984   1.120   2.972  1.3709  2.1036 -2.5442
 2165SOL    HW2 6556   0.878   1.224   2.999  0.3927  0.3642  0.9819
 2166SOL     OW 6557   4.166   4.811   2.647  0.2728  0.6645 -0.5322
 2166SOL    HW1 6558   4.175   4.891   2.700  0.6081  0.8182 -0.8143
 2166SOL    HW2 6559   4.080   4.819   2.606  0.7598  1.4351 -1.4474
 2167SOL     OW 6560   0.755   1.041   2.168 -0.4127 -0.0602  0.1698
 2167SOL    HW1 6561   0.790   1.017   2.082  0.6079 -1.4287  0.9256
 2167SOL    HW2 6562   0.780   1.132   2.180 -1.1040  0.3512 -1.2149
 2168SOL     OW 6563   3.272   1.880   0.733  0.5322  0.5324 -0.2492
 2168SOL    HW1 6564   3.347   1.897   0.789 -0.0899  1.2561  0.3924
 2168SOL    HW2 6565   3.307   1.881   0.644  1.5868 -0.9559  0.1225
 2169SOL     OW 6566   2.508   1.727   0.591 -0.2154  0.7003 -0.5475
 2169SOL    HW1 6567   2.478   1.706   0.679 -0.1369 -0.1467 -0.7175
 2169SOL    HW2 6568   2.428   1.754   0.544 -0.2908  0.9399 -0.2832
 2170SOL     OW 6569   4.414   1.299   1.870  0.0121 -0.5621 -0.0034
 2170SOL    HW1 6570   4.334   1.349   1.886  0.6017  0.2973  0.3797
 2170SOL    HW2 6571   4.483   1.365   1.871  0.8154 -1.3930  0.4413
 2171SOL     OW 6572   0.939   3.463   3.596 -0.0434  0.1285 -0.6163
 2171SOL    HW1 6573   0.924   3.553   3.566 -0.7508 -0.0011 -0.6778
 2171SOL    HW2 6574   0.939   3.470   3.691  0.4442  0.2734 -0.6242
 2172SOL     OW 6575   3.338   1.515   3.634 -0.4466 -0.3661  0.4630
 2172SOL    HW1 6576   3.296   1.434   3.604 -0.3602 -0.6856  1.1915
 2172SOL    HW2 6577   3.378   1.492   3.718 -0.9970  0.5966  1.0079
 2173SOL     OW 6578   4.681   0.811   1.381 -0.0895 -0.1243 -0.0991
 2173SOL    HW1 6579   4.719   0.803   1.469  0.1344  2.2247  0.0678
 2173SOL    HW2 6580   4.743   0.764   1.325  0.1177 -1.0790  0.8786
 2174SOL     OW 6581   2.185   1.265   4.219 -0.0284  0.2327  0.2698
 2174SOL    HW1 6582   2.129   1.191   4.195  2.4784 -1.3236 -1.2029
 2174SOL    HW2 6583   2.189   1.262   4.314 -2.6391  0.6617  0.4880
 2175SOL     OW 6584   4.175   5.059   1.574  0.0425 -0.1429  0.1615
 2175SOL    HW1 6585   4.259   5.101   1.595  0.7818 -0.3635 -2.1354
 2175SOL    HW2 6586   4.192   4.966   1.588  0.3314 -0.2256 -0.6721
 2176SOL     OW 6587   4.517   4.987   2.042  0.2710  0.0433  0.1687
 2176SOL    HW1 6588   4.519   5.083   2.037 -0.3059  0.0701  0.2860
 2176SOL    HW2 6589   4.580   4.958   1.977  0.2240  0.5028 -0.0878
 2177SOL     OW 6590   2.397   3.931   2.815 -0.0351  0.0078 -0.3567
 2177SOL    HW1 6591   2.343   3.858   2.846  0.4254  0.2499  1.0896
 2177SOL    HW2 6592   2.487   3.905   2.838  0.2488  0.5564 -0.8178
 2178SOL     OW 6593   4.397   0.054   0.019  0.4918 -0.0905 -0.1957
 2178SOL    HW1 6594   4.345   0.102  -0.046 -0.1326 -0.7668 -0.2063
 2178SOL    HW2 6595   4.438  -0.016  -0.031 -0.6966 -1.1600  0.2646
 2179SOL     OW 6596   1.486   4.361   0.827  0.2058  0.8165 -0.2542
 2179SOL    HW1 6597   1.470   4.364   0.921 -0.2031  0.8665 -0.3194
 2179SOL    HW2 6598   1.575   4.328   0.818  0.6400  1.8277  0.1812
 2180SOL     OW 6599   4.907   0.575   4.427  0.5055 -0.2683 -0.4947
 2180SOL    HW1 6600   4.819   0.559   4.392  0.3244 -0.6748  0.1274
 2180SOL    HW2 6601   4.903   0.542   4.517  1.1710  0.1033 -0.3236
 2181SOL     OW 6602   0.882   3.875   0.629 -0.2651  0.3606  0.4488
 2181SOL    HW1 6603   0.804   3.874   0.684 -0.4433  1.1709  0.2232
 2181SOL    HW2 6604   0.953   3.899   0.688 -0.0962 -0.8272  0.7515
 2182SOL     OW 6605   3.415   2.657   3.590  0.0953  0.2912 -0.4202
 2182SOL    HW1 6606   3.405   2.687   3.680 -0.9575  0.2338 -0.4990
 2182SOL    HW2 6607   3.330   2.617   3.569  0.6794 -0.6277 -1.0907
 2183SOL     OW 6608   4.613   4.500   0.308 -0.4514 -0.2146 -0.0169
 2183SOL    HW1 6609   4.685   4.499   0.246  0.4488  2.9353  0.7967
 2183SOL    HW2 6610   4.535   4.483   0.256  0.5713 -0.8219 -1.4021
 2184SOL     OW 6611   0.244   4.967   2.489 -0.1174  1.2087  0.2207
 2184SOL    HW1 6612   0.179   4.922   2.543 -0.8264  0.8132 -0.9132
 2184SOL    HW2 6613   0.300   4.897   2.455 -0.3375  1.3180 -0.3914
 2185SOL     OW 6614   3.553   0.164   1.092 -0.7693 -0.0505 -0.5163
 2185SOL    HW1 6615   3.535   0.090   1.034  5.1064 -1.5120 -1.1204
 2185SOL    HW2 6616   3.582   0.234   1.033 -1.6728  1.1246  0.3664
 2186SOL     OW 6617   1.293   4.514   4.239 -0.3786 -0.0211 -0.4794
 2186SOL    HW1 6618   1.367   4.513   4.179 -0.4822  0.6275 -0.6307
 2186SOL    HW2 6619   1.282   4.607   4.262 -2.4432  0.2027 -2.0831
 2187SOL     OW 6620   2.462   0.435   3.478 -0.8331  0.1714 -0.3194
 2187SOL    HW1 6621   2.474   0.521   3.520  0.5365 -0.6854  1.1632
 2187SOL    HW2 6622   2.547   0.417   3.437 -0.5462 -1.1574  0.7787
 2188SOL     OW 6623   3.970   0.015   3.602  0.3040 -0.7503  0.7650
 2188SOL    HW1 6624   3.911  -0.033   3.660  0.8418 -1.3688  0.8234
 2188SOL    HW2 6625   3.921   0.092   3.575 -0.3650 -1.0350  1.1484
 2189SOL     OW 6626   0.796   2.358   0.972  0.0531 -0.6502 -0.2392
 2189SOL    HW1 6627   0.891   2.360   0.958  0.1069  1.0339  0.1660
 2189SOL    HW2 6628   0.782   2.407   1.053 -1.2352 -0.0085 -0.8193
 2190SOL     OW 6629   4.774   4.731   3.289 -0.5490  0.5473  0.2480
 2190SOL    HW1 6630   4.730   4.681   3.220  0.9180  1.3926 -1.4062
 2190SOL    HW2 6631   4.772   4.674   3.366  0.1654 -1.6584 -1.2618
 2191SOL     OW 6632   2.206   2.925   2.974  0.1587  0.1296 -0.4438
 2191SOL    HW1 6633   2.230   2.946   2.884  0.8028 -3.1026 -1.1790
 2191SOL    HW2 6634   2.280   2.874   3.007 -1.7710 -2.4165  0.3467
 2192SOL     OW 6635   2.186   1.367   2.685  0.2373  0.1495 -0.2997
 2192SOL    HW1 6636   2.149   1.388   2.770 -0.1312 -0.3736 -0.3249
 2192SOL    HW2 6637   2.264   1.421   2.678 -0.2575  0.9121 -0.0372
 2193SOL     OW 6638   1.012   2.185   0.626  0.4368 -0.8088  0.3690
 2193SOL    HW1 6639   1.088   2.238   0.654 -0.1321 -0.7552  1.9377
 2193SOL    HW2 6640   0.969   2.162   0.708 -1.7412 -0.1281 -0.5227
 2194SOL     OW 6641   2.958   4.931   2.692  0.8349  0.7038 -0.4249
 2194SOL    HW1 6642   2.985   4.926   2.600  0.8886  0.7436 -0.4117
 2194SOL    HW2 6643   2.881   4.875   2.698  2.2825 -1.3535  0.0501
 2195SOL     OW 6644   4.584   3.158   4.222 -0.0093 -0.7000 -0.3832
 2195SOL    HW1 6645   4.601   3.122   4.309  1.0634 -0.0029 -0.2954
 2195SOL    HW2 6646   4.664   3.205   4.199 -1.4831  2.0489 -0.2755
 2196SOL     OW 6647   4.515   0.396   0.699 -0.3220 -0.0291 -0.3482
 2196SOL    HW1 6648   4.449   0.465   0.710 -1.0389 -0.7196 -0.1836
 2196SOL    HW2 6649   4.595   0.442   0.677 -0.2771  1.0214  1.7884
 2197SOL     OW 6650   3.674   0.489   3.530  0.1100  0.4172  0.3035
 2197SOL    HW1 6651   3.671   0.469   3.624 -0.3447 -0.1547  0.1703
 2197SOL    HW2 6652   3.690   0.583   3.527  1.5880  0.2197  0.9477
 2198SOL     OW 6653   4.041   2.772   1.808 -0.3185  0.2545 -0.0375
 2198SOL    HW1 6654   4.079   2.707   1.749  0.7618 -0.6658  1.5987
 2198SOL    HW2 6655   3.961   2.730   1.840 -0.2988  0.2678  0.0285
 2199SOL     OW 6656   5.005   0.086   1.606  0.1552 -0.3138  0.0316
 2199SOL    HW1 6657   5.100   0.090   1.592  0.2151 -0.2966  0.4360
 2199SOL    HW2 6658   4.990  -0.002   1.640  0.2429  0.2109  1.5178
 2200SOL     OW 6659   2.733   0.102   0.832 -0.1510  0.4953 -0.1718
 2200SOL    HW1 6660   2.784   0.148   0.766  0.5507  0.0404  0.0445
 2200SOL    HW2 6661   2.715   0.016   0.793  1.5816 -0.3544  0.8041
 2201SOL     OW 6662   0.700   4.297   1.036 -0.1853 -0.6170  0.1039
 2201SOL    HW1 6663   0.686   4.295   0.941  0.7376  1.1716 -0.1207
 2201SOL    HW2 6664   0.635   4.359   1.069  0.8486  0.4274  0.3021
 2202SOL     OW 6665   2.300   0.305   3.661 -0.4426  0.1234 -0.2117
 2202SOL    HW1 6666   2.273   0.218   3.631 -0.0067 -0.9224  2.1831
 2202SOL    HW2 6667   2.348   0.342   3.587 -1.9931 -0.9896 -1.8648
 2203SOL     OW 6668   2.048   3.582   0.663  0.0293  0.4321  0.3134
 2203SOL    HW1 6669   1.967   3.544   0.628  0.4263 -0.3406  0.2279
 2203SOL    HW2 6670   2.018   3.654   0.719 -0.9218 -1.6090  2.6144
 2204SOL     OW 6671   4.617   3.274   3.510  0.3823 -0.1394  0.6163
 2204SOL    HW1 6672   4.699   3.307   3.476  0.2774  0.9948  1.4094
 2204SOL    HW2 6673   4.639   3.236   3.595  0.0352  0.5761  1.0388
 2205SOL     OW 6674   2.102   1.559   2.386  0.1877 -0.5859 -0.2717
 2205SOL    HW1 6675   2.181   1.505   2.393  1.2207  0.8908 -0.2193
 2205SOL    HW2 6676   2.133   1.649   2.394 -1.3797  0.0907 -1.2790
 2206SOL     OW 6677   4.926   4.748   1.155 -0.0899 -0.4955 -0.0058
 2206SOL    HW1 6678   4.842   4.703   1.145  0.5051 -1.5879 -0.1963
 2206SOL    HW2 6679   4.902   4.840   1.169 -1.2846 -0.3896 -2.2538
 2207SOL     OW 6680   1.233   3.498   2.225  0.2093 -0.3972 -0.3659
 2207SOL    HW1 6681   1.281   3.418   2.205  0.8974  0.3998 -2.1706
 2207SOL    HW2 6682   1.291   3.569   2.195 -0.8900  0.7105  0.0323
 2208SOL     OW 6683   1.123   2.738   2.013  0.2108  0.3312 -0.0610
 2208SOL    HW1 6684   1.028   2.743   2.001  0.2052  1.9979  0.4267
 2208SOL    HW2 6685   1.159   2.784   1.936  0.4932  2.0999  1.0613
 2209SOL     OW 6686   4.731   3.868   2.311 -0.4330  0.3797 -0.2214
 2209SOL    HW1 6687   4.810   3.819   2.336 -1.7808 -1.9568 -0.3179
 2209SOL    HW2 6688   4.748   3.896   2.221  0.8813  1.2967  0.2655
 2210SOL     OW 6689   2.507   4.578   1.947  0.0940  0.0520  0.4773
 2210SOL    HW1 6690   2.550   4.563   2.031  1.8306  2.4081  0.1211
 2210SOL    HW2 6691   2.571   4.552   1.881 -0.4544  0.1483 -0.1108
 2211SOL     OW 6692   3.091   3.246   3.641  0.3288  0.1861  0.3685
 2211SOL    HW1 6693   2.998   3.269   3.642  0.1976 -0.2180  2.1730
 2211SOL    HW2 6694   3.127   3.292   3.566 -1.2569  0.6511 -0.1429
 2212SOL     OW 6695   3.560   1.977   2.552  0.2512  0.1883 -0.0331
 2212SOL    HW1 6696   3.641   2.010   2.514  0.5217  0.1097  0.4630
 2212SOL    HW2 6697   3.503   1.960   2.477  0.6286  0.4146 -0.3739
 2213SOL     OW 6698   4.388   0.694   1.103 -0.2132 -0.2951  0.3943
 2213SOL    HW1 6699   4.335   0.706   1.024  0.0832  0.3139  0.2828
 2213SOL    HW2 6700   4.347   0.620   1.148 -0.4976 -0.5303 -0.2343
 2214SOL     OW 6701   0.519   1.760   1.256  0.1046 -0.5345  0.1539
 2214SOL    HW1 6702   0.501   1.805   1.174 -1.9950 -1.3748  0.0878
 2214SOL    HW2 6703   0.588   1.697   1.235  0.6578  0.2916 -0.5585
 2215SOL     OW 6704   4.042   4.666   3.096 -0.1626 -0.1087  0.0799
 2215SOL    HW1 6705   4.096   4.604   3.046  2.0964  1.2094  0.7618
 2215SOL    HW2 6706   4.093   4.747   3.096 -1.3891  0.7163  2.2109
 2216SOL     OW 6707   5.354   0.776   3.839 -0.0661  0.1288 -0.2330
 2216SOL    HW1 6708   5.346   0.718   3.915 -0.3599 -1.1301 -1.1835
 2216SOL    HW2 6709   5.267   0.778   3.800  0.5462 -1.1209 -1.8144
 2217SOL     OW 6710   5.173   4.678   3.536 -0.4532 -0.2389  0.4168
 2217SOL    HW1 6711   5.125   4.686   3.454  0.5293 -1.8123 -0.3634
 2217SOL    HW2 6712   5.170   4.584   3.557  1.3089 -0.2242  0.9176
 2218SOL     OW 6713   4.656   3.504   1.112 -0.0885  0.4747 -0.0044
 2218SOL    HW1 6714   4.673   3.427   1.058  2.1926  0.8035  0.1541
 2218SOL    HW2 6715   4.625   3.468   1.195  1.8420 -0.3931  0.3995
 2219SOL     OW 6716   1.853   3.717   2.521 -0.1070 -0.5489 -0.2141
 2219SOL    HW1 6717   1.886   3.807   2.517 -0.1814 -0.5421 -0.7204
 2219SOL    HW2 6718   1.809   3.711   2.606 -1.5696  0.4119 -0.8630
 2220SOL     OW 6719   4.356   1.827   4.297 -0.1618  0.1980 -0.1209
 2220SOL    HW1 6720   4.309   1.870   4.226 -1.9636 -1.5643 -0.0716
 2220SOL    HW2 6721   4.445   1.815   4.263 -0.1893  1.9293 -0.9295
 2221SOL     OW 6722   4.866   0.651   3.821  0.5378 -0.4538 -0.2358
 2221SOL    HW1 6723   4.823   0.598   3.754 -1.6907  0.5654  0.3262
 2221SOL    HW2 6724   4.864   0.596   3.900  0.8384 -0.6370 -0.3521
 2222SOL     OW 6725   3.939   2.280   2.052 -0.2700 -0.1429 -0.1387
 2222SOL    HW1 6726   3.864   2.335   2.073 -1.0643 -0.6420 -1.5072
 2222SOL    HW2 6727   3.915   2.193   2.084  0.3441 -0.0232  0.6795
 2223SOL     OW 6728   0.489   1.841   2.385  0.2892 -0.6888  0.3884
 2223SOL    HW1 6729   0.405   1.808   2.355  0.5621 -0.0519 -1.1344
 2223SOL    HW2 6730   0.539   1.763   2.410  0.1062 -1.2546 -0.9736
 2224SOL     OW 6731   4.871   4.705   2.429 -0.5250 -0.2998 -0.0117
 2224SOL    HW1 6732   4.875   4.634   2.494  0.3922  1.7074  2.2776
 2224SOL    HW2 6733   4.946   4.688   2.372 -0.6936 -1.5149  0.0842
 2225SOL     OW 6734   1.977   4.115   4.347  0.4665  0.0045 -0.0830
 2225SOL    HW1 6735   1.881   4.114   4.353  0.5100  0.1122  0.6546
 2225SOL    HW2 6736   2.005   4.038   4.396  0.7406 -0.2921 -0.6984
 2226SOL     OW 6737   2.971   3.292   0.284 -0.1260  0.3165  0.3014
 2226SOL    HW1 6738   3.016   3.210   0.267 -0.1388  0.1826  0.8958
 2226SOL    HW2 6739   2.936   3.319   0.198 -1.5324 -1.1397  0.3689
 2227SOL     OW 6740   1.054   4.898   0.674  0.4463 -0.5162  0.3128
 2227SOL    HW1 6741   1.065   4.839   0.599 -1.1316 -0.2798 -0.1367
 2227SOL    HW2 6742   1.013   4.844   0.741 -0.3980 -0.1087  0.1306
 2228SOL     OW 6743   4.264   4.895   0.203  1.3522  0.4150 -0.2286
 2228SOL    HW1 6744   4.285   4.925   0.292  0.5203  0.9438 -0.2053
 2228SOL    HW2 6745   4.173   4.921   0.189  0.6320 -1.9393 -0.2996
 2229SOL     OW 6746   1.827   3.453   0.581  0.1698  0.1891 -0.5742
 2229SOL    HW1 6747   1.803   3.427   0.492 -2.2667  2.3832 -0.6735
 2229SOL    HW2 6748   1.792   3.383   0.637 -0.9244  0.2235 -1.1896
 2230SOL     OW 6749   2.939   1.176   3.540 -0.0259 -0.4732 -0.4197
 2230SOL    HW1 6750   2.863   1.214   3.496 -0.4025 -0.4581  0.2419
 2230SOL    HW2 6751   2.948   1.088   3.501 -0.3949 -0.4871 -0.4743
 2231SOL     OW 6752   4.396   0.582   1.357  0.1237  0.5098 -0.2358
 2231SOL    HW1 6753   4.407   0.677   1.359  2.0976  0.4021 -2.5027
 2231SOL    HW2 6754   4.479   0.547   1.387  0.8302 -0.4188 -2.9645
 2232SOL     OW 6755   2.317   3.167   4.193  0.1800  0.6199 -0.3078
 2232SOL    HW1 6756   2.284   3.085   4.157  0.1259  0.6589 -0.3446
 2232SOL    HW2 6757   2.240   3.210   4.230  0.2277  0.5989 -0.1821
 2233SOL     OW 6758   3.320   2.354   3.010 -0.0809  0.3225  0.4178
 2233SOL    HW1 6759   3.237   2.311   2.987  0.8234 -1.4865  0.3304
 2233SOL    HW2 6760   3.353   2.387   2.927 -0.4969  0.6558  0.3816
 2234SOL     OW 6761   0.936   1.587   1.422 -0.9733 -0.2028  0.0255
 2234SOL    HW1 6762   0.898   1.511   1.465 -1.1174 -0.9207 -1.3212
 2234SOL    HW2 6763   1.019   1.556   1.387  0.0600  0.8841  1.4072
 2235SOL     OW 6764   3.919   4.810   2.485  0.3107 -0.6518  0.3244
 2235SOL    HW1 6765   3.903   4.731   2.434  0.8363  0.1531 -1.1647
 2235SOL    HW2 6766   3.963   4.870   2.424  1.6528  0.1109  1.9313
 2236SOL     OW 6767   5.416   0.590   3.075 -0.2288  0.0015 -0.1525
 2236SOL    HW1 6768   5.417   0.595   2.979  0.8645  0.8807 -0.1125
 2236SOL    HW2 6769   5.327   0.617   3.099 -0.2137  0.7452 -0.8825
 2237SOL     OW 6770   2.815   3.789   1.840 -0.9027  0.3647  0.3389
 2237SOL    HW1 6771   2.779   3.713   1.796  0.1912 -0.0272  0.0782
 2237SOL    HW2 6772   2.741   3.828   1.887 -1.8139  0.0735 -0.8304
 2238SOL     OW 6773   3.239   1.706   1.631  0.3472 -0.4212  0.5617
 2238SOL    HW1 6774   3.162   1.742   1.587 -0.1944 -0.8371  1.1539
 2238SOL    HW2 6775   3.240   1.614   1.604  1.4002 -0.1217 -0.4976
 2239SOL     OW 6776   1.678   0.972   0.359 -0.0386  0.4107 -0.0308
 2239SOL    HW1 6777   1.661   0.894   0.305  1.0499  0.5071 -0.5209
 2239SOL    HW2 6778   1.771   0.967   0.380 -0.2233  0.9473  0.9551
 2240SOL     OW 6779   5.399   0.742   2.274 -0.2915  0.0540  0.1216
 2240SOL    HW1 6780   5.479   0.784   2.241  0.8717 -1.8553  0.3748
 2240SOL    HW2 6781   5.416   0.728   2.367 -1.4949  0.8029  0.4858
 2241SOL     OW 6782   5.296   4.197   3.998  0.4745 -0.2563  0.1314
 2241SOL    HW1 6783   5.302   4.140   4.075  2.8820  1.0163  1.0149
 2241SOL    HW2 6784   5.379   4.184   3.952 -0.2043  0.2959 -1.3169
 2242SOL     OW 6785   5.461   2.225   4.001 -0.5689  0.1360  0.5490
 2242SOL    HW1 6786   5.494   2.164   3.934 -0.1243  0.4166  0.5072
 2242SOL    HW2 6787   5.366   2.226   3.988 -0.4607  0.4435 -0.3020
 2243SOL     OW 6788   2.210   0.714   0.729 -0.6524 -0.0393  0.4867
 2243SOL    HW1 6789   2.158   0.695   0.807 -2.8334  2.4019 -0.2530
 2243SOL    HW2 6790   2.197   0.807   0.713  0.3729 -0.2889 -2.3315
 2244SOL     OW 6791   5.376   2.914   2.640 -0.5554 -0.6597  0.1701
 2244SOL    HW1 6792   5.388   2.876   2.552  0.1227  0.1744 -0.1081
 2244SOL    HW2 6793   5.360   3.007   2.624 -2.4474 -0.8321  0.8359
 2245SOL     OW 6794   1.838   1.228   2.323 -0.0343 -0.1494  0.0337
 2245SOL    HW1 6795   1.874   1.309   2.359  0.5437 -0.4045  0.0376
 2245SOL    HW2 6796   1.783   1.192   2.393 -2.2746  1.4558 -0.7851
 2246SOL     OW 6797   0.189   5.105   1.770 -0.1510 -0.2562  0.6050
 2246SOL    HW1 6798   0.236   5.128   1.850 -0.8918  0.8420  0.7617
 2246SOL    HW2 6799   0.256   5.100   1.702  0.1754  1.6675  0.7389
 2247SOL     OW 6800   0.608   1.246   1.818 -0.2129  0.2618  0.9404
 2247SOL    HW1 6801   0.685   1.227   1.872 -0.7157  2.2972  2.4600
 2247SOL    HW2 6802   0.615   1.339   1.798 -2.4209  0.5541  1.3251
 2248SOL     OW 6803   1.235   3.521   3.311  0.0563 -0.7331  0.1915
 2248SOL    HW1 6804   1.318   3.567   3.326  0.4334 -1.4112  0.2469
 2248SOL    HW2 6805   1.176   3.588   3.277  1.1118 -0.5583 -1.4074
 2249SOL     OW 6806   3.144   4.629   3.384  0.7297  0.2143 -0.1546
 2249SOL    HW1 6807   3.225   4.654   3.339  0.6804  2.3573  0.8087
 2249SOL    HW2 6808   3.171   4.612   3.474  0.4502 -1.5301 -0.3780
 2250SOL     OW 6809   4.254   1.009   3.179 -0.0973 -0.0329  0.1967
 2250SOL    HW1 6810   4.343   1.009   3.144 -0.2394  0.0388 -0.1666
 2250SOL    HW2 6811   4.232   1.102   3.187  0.4593 -0.0040  1.8360
 2251SOL     OW 6812   2.451   3.561   0.215  0.2408 -0.5560  0.5541
 2251SOL    HW1 6813   2.461   3.467   0.204  0.6100 -0.5565  0.9114
 2251SOL    HW2 6814   2.359   3.577   0.196 -0.1564 -1.1784  1.8313
 2252SOL     OW 6815   0.739   0.287   3.281 -0.2435  0.0265 -0.2444
 2252SOL    HW1 6816   0.678   0.300   3.208  1.9709 -0.9036 -2.4166
 2252SOL    HW2 6817   0.731   0.195   3.303  0.7821 -0.2621 -0.9998
 2253SOL     OW 6818   4.249   2.584   0.185 -0.7395  0.3349  0.2461
 2253SOL    HW1 6819   4.319   2.530   0.222  0.1068  2.0462  1.2592
 2253SOL    HW2 6820   4.168   2.541   0.213 -0.1439 -1.6581 -0.9150
 2254SOL     OW 6821   5.303   5.102   0.973  0.5990  0.2281 -0.4586
 2254SOL    HW1 6822   5.235   5.106   0.906  0.7171  0.8192 -0.5433
 2254SOL    HW2 6823   5.265   5.048   1.043 -0.3644  1.4269 -0.0282
 2255SOL     OW 6824   3.040   3.058   0.780  0.4227 -0.0635  0.8292
 2255SOL    HW1 6825   3.034   3.151   0.760  0.6640 -0.4751 -1.4136
 2255SOL    HW2 6826   3.017   3.014   0.699 -0.5356 -2.0062  2.0609
 2256SOL     OW 6827   0.110   0.952   3.041 -0.0609 -0.3190  0.0614
 2256SOL    HW1 6828   0.171   0.930   3.112 -0.0498  0.1287  0.1963
 2256SOL    HW2 6829   0.115   1.048   3.035 -1.4251 -0.1852  0.6773
 2257SOL     OW 6830   4.864   4.454   1.173  0.0173 -0.1685  0.1547
 2257SOL    HW1 6831   4.946   4.464   1.123 -0.2195  0.0892 -0.1879
 2257SOL    HW2 6832   4.799   4.503   1.122  0.0292  1.1457  1.3390
 2258SOL     OW 6833   1.525   0.068   2.177 -0.0176  0.0231 -0.1730
 2258SOL    HW1 6834   1.588  -0.004   2.177  1.8898  1.5486  1.8260
 2258SOL    HW2 6835   1.440   0.025   2.172  0.9005 -2.6342  2.9991
 2259SOL     OW 6836   2.191   0.264   2.744 -0.1005 -0.3207 -0.1832
 2259SOL    HW1 6837   2.183   0.349   2.699  0.3352 -1.3558 -2.3457
 2259SOL    HW2 6838   2.145   0.277   2.827 -2.0645  1.3794 -1.4132
 2260SOL     OW 6839   5.278   1.901   1.768  0.1134  0.0746  0.3076
 2260SOL    HW1 6840   5.297   1.961   1.695  0.9683 -0.5752 -0.0059
 2260SOL    HW2 6841   5.183   1.911   1.782 -0.1553 -0.1329 -1.2061
 2261SOL     OW 6842   2.946   1.197   3.828 -0.2414 -0.2247 -0.0632
 2261SOL    HW1 6843   2.933   1.215   3.735  0.7801 -0.6880 -0.3078
 2261SOL    HW2 6844   2.967   1.103   3.832  0.7852  0.0183  0.5118
 2262SOL     OW 6845   5.003   4.512   0.861  0.2238 -0.1286 -0.1943
 2262SOL    HW1 6846   4.959   4.566   0.795  1.2228 -0.6364 -1.3250
 2262SOL    HW2 6847   5.063   4.572   0.905 -1.6171  0.6136  1.4882
 2263SOL     OW 6848   2.304   3.812   1.629  0.2288  0.2834  0.9388
 2263SOL    HW1 6849   2.247   3.776   1.697  1.0154 -0.8505  1.0335
 2263SOL    HW2 6850   2.365   3.868   1.677  0.9164 -0.6795  1.2315
 2264SOL     OW 6851   0.059   0.730   0.961  0.0258 -0.1249  0.2284
 2264SOL    HW1 6852  -0.024   0.751   0.919  0.0988 -2.6305 -1.3472
 2264SOL    HW2 6853   0.125   0.750   0.895  0.3651 -1.3756  0.1603
 2265SOL     OW 6854   4.259   0.823   2.427 -0.1981 -0.1931 -0.0140
 2265SOL    HW1 6855   4.315   0.789   2.357 -2.2748  0.2867 -2.0068
 2265SOL    HW2 6856   4.268   0.758   2.497 -0.1029 -2.1466 -1.7417
 2266SOL     OW 6857   2.135   2.674   2.691  0.3168 -0.1229  0.5879
 2266SOL    HW1 6858   2.086   2.686   2.773  0.4813 -1.4504  0.9093
 2266SOL    HW2 6859   2.210   2.731   2.700  0.3047 -0.2113  1.3590
 2267SOL     OW 6860   3.618   1.777   0.126 -0.3754  0.2119  0.0351
 2267SOL    HW1 6861   3.523   1.782   0.135 -0.3093  1.1366  0.3313
 2267SOL    HW2 6862   3.633   1.703   0.067 -1.1254 -1.9977  2.4085
 2268SOL     OW 6863   0.354   2.100   4.019 -0.3926 -0.5566 -1.0299
 2268SOL    HW1 6864   0.372   2.181   3.972 -0.7504 -0.4092 -0.9088
 2268SOL    HW2 6865   0.305   2.126   4.096  0.1282 -0.8082 -0.6009
 2269SOL     OW 6866   1.512   1.131   0.486 -0.2239 -0.2068 -0.8111
 2269SOL    HW1 6867   1.431   1.113   0.439 -0.2023 -1.9213 -0.2378
 2269SOL    HW2 6868   1.578   1.076   0.444  0.5376  0.7027 -0.8688
 2270SOL     OW 6869   1.400   0.311   3.914  0.3388 -0.3083 -0.1319
 2270SOL    HW1 6870   1.352   0.333   3.834 -0.0642 -0.8566 -0.0421
 2270SOL    HW2 6871   1.344   0.341   3.985  0.6700  0.1228 -0.0436
 2271SOL     OW 6872   2.814   3.468   3.920  0.3403 -0.9852  0.2307
 2271SOL    HW1 6873   2.899   3.503   3.893  0.5579 -0.0083  2.0517
 2271SOL    HW2 6874   2.751   3.534   3.894  0.0786 -1.7850 -1.2708
 2272SOL     OW 6875   3.109   2.925   3.414  0.0283 -0.7450 -0.3125
 2272SOL    HW1 6876   3.045   2.878   3.468 -0.4442 -0.3933 -0.5561
 2272SOL    HW2 6877   3.178   2.952   3.475 -1.8263  2.1149  0.7338
 2273SOL     OW 6878   3.751   4.173   1.341  0.0697 -0.6286  0.3610
 2273SOL    HW1 6879   3.684   4.119   1.383  0.6566 -0.2683  1.8240
 2273SOL    HW2 6880   3.703   4.226   1.277 -1.1121 -0.0980  1.6420
 2274SOL     OW 6881   0.387   0.369   4.007 -0.1734  0.4045 -0.5632
 2274SOL    HW1 6882   0.406   0.408   4.093 -0.5742  1.4138 -0.9113
 2274SOL    HW2 6883   0.292   0.373   4.000 -0.3385 -1.7535 -0.1315
 2275SOL     OW 6884   0.617   0.273   0.191 -0.4389 -0.0353 -0.1609
 2275SOL    HW1 6885   0.712   0.265   0.199 -0.0299  3.3224 -0.1917
 2275SOL    HW2 6886   0.589   0.307   0.275 -1.1329  1.8741 -1.1183
 2276SOL     OW 6887   3.318   4.086   3.523 -0.1690 -0.6187  0.1560
 2276SOL    HW1 6888   3.230   4.063   3.495  0.1010 -0.0353 -1.2972
 2276SOL    HW2 6889   3.375   4.030   3.470  0.3560 -0.0172  0.0710
 2277SOL     OW 6890   1.121   2.611   0.398 -0.0975 -0.3699 -0.1585
 2277SOL    HW1 6891   1.122   2.516   0.382 -0.6992 -0.0789 -2.0622
 2277SOL    HW2 6892   1.030   2.631   0.419  0.4481 -0.5501  2.9076
 2278SOL     OW 6893   0.244   4.276   1.310 -0.2811 -0.2080  1.0303
 2278SOL    HW1 6894   0.278   4.284   1.221 -0.5877 -0.8226  0.8554
 2278SOL    HW2 6895   0.164   4.329   1.310 -0.0890  0.0907  1.0528
 2279SOL     OW 6896   3.688   3.542   2.460 -0.0486 -0.1238 -0.1202
 2279SOL    HW1 6897   3.741   3.515   2.536  0.5395 -0.1860 -0.5447
 2279SOL    HW2 6898   3.733   3.502   2.385 -0.7855 -0.2914 -0.4727
 2280SOL     OW 6899   2.316   2.614   3.178  0.2686 -0.1729 -0.0275
 2280SOL    HW1 6900   2.356   2.701   3.172  3.0754 -1.4240 -1.4048
 2280SOL    HW2 6901   2.299   2.603   3.272  0.1474  1.7035  0.2248
 2281SOL     OW 6902   4.532   0.095   0.531 -0.4612 -0.3400 -0.1512
 2281SOL    HW1 6903   4.558   0.129   0.445 -1.1415  0.8200  0.0780
 2281SOL    HW2 6904   4.615   0.073   0.573 -0.0569 -0.0258 -0.7601
 2282SOL     OW 6905   0.685   4.434   0.310 -0.0985 -0.3364 -0.1208
 2282SOL    HW1 6906   0.613   4.464   0.364  0.5161  0.0148  0.5137
 2282SOL    HW2 6907   0.735   4.513   0.289  0.6563 -0.6958  0.2765
 2283SOL     OW 6908   0.245   2.340   1.645 -0.4516  0.6062 -0.2556
 2283SOL    HW1 6909   0.159   2.332   1.688 -0.6868 -0.3596 -0.8822
 2283SOL    HW2 6910   0.228   2.396   1.569 -0.1493  1.8534  0.5619
 2284SOL     OW 6911   0.517   4.258   1.666 -0.0432  0.2259  0.2510
 2284SOL    HW1 6912   0.520   4.171   1.625  0.3426  0.8147 -1.0452
 2284SOL    HW2 6913   0.592   4.305   1.627  0.1000  0.9529  1.3616
 2285SOL     OW 6914   1.810   0.918   4.003  0.1108  0.8794 -0.0337
 2285SOL    HW1 6915   1.858   0.901   3.922 -1.7569  1.9925 -1.4522
 2285SOL    HW2 6916   1.874   0.962   4.060  1.5666 -0.2713 -0.6995
 2286SOL     OW 6917   0.934   4.676   2.448  0.1112 -0.1926  0.1338
 2286SOL    HW1 6918   0.857   4.649   2.497 -0.3889 -1.4523 -1.2568
 2286SOL    HW2 6919   0.899   4.724   2.373  0.7133 -0.1426 -0.1209
 2287SOL     OW 6920   4.967   1.960   3.787  0.1086 -0.1156 -0.2877
 2287SOL    HW1 6921   5.039   1.920   3.835  0.2116 -0.7145 -0.9296
 2287SOL    HW2 6922   4.976   1.928   3.698  0.6558  1.9595 -1.0293
 2288SOL     OW 6923   2.909   1.381   0.598 -0.0577  0.1301 -0.2669
 2288SOL    HW1 6924   2.882   1.290   0.615  0.3718  0.2328  1.0584
 2288SOL    HW2 6925   2.828   1.432   0.606 -0.6552 -0.2871 -2.7341
 2289SOL     OW 6926   5.334   3.588   1.034 -0.3417 -0.2249 -0.8210
 2289SOL    HW1 6927   5.259   3.633   1.073  0.1958 -0.4718  0.5668
 2289SOL    HW2 6928   5.401   3.656   1.027  1.7333 -1.1737  4.5359
 2290SOL     OW 6929   1.512   2.512   1.469 -0.1683 -0.2034 -0.1091
 2290SOL    HW1 6930   1.496   2.557   1.386  0.8438 -0.8686 -0.6831
 2290SOL    HW2 6931   1.605   2.491   1.467  0.0722  0.5635  1.6092
 2291SOL     OW 6932   4.350   4.559   4.261  0.0720 -0.4972  0.1666
 2291SOL    HW1 6933   4.370   4.638   4.210 -0.1301  0.3128  1.2974
 2291SOL    HW2 6934   4.320   4.495   4.196 -2.3838  1.2094 -0.5193
 2292SOL     OW 6935   1.366   0.768   4.154  0.1936 -0.2261  0.3497
 2292SOL    HW1 6936   1.456   0.755   4.124  0.1384 -1.7729  0.7523
 2292SOL    HW2 6937   1.339   0.851   4.114  0.6926 -1.2975 -2.4444
 2293SOL     OW 6938   4.876   1.585   0.513 -0.5654 -0.2266  0.1419
 2293SOL    HW1 6939   4.962   1.610   0.479  0.0160 -2.2001  0.0675
 2293SOL    HW2 6940   4.817   1.594   0.438 -0.3592  0.7104  0.0809
 2294SOL     OW 6941   4.960   0.926   3.183 -0.4647  0.5083 -0.6451
 2294SOL    HW1 6942   4.920   0.998   3.232  2.0143  1.2938  0.3612
 2294SOL    HW2 6943   5.004   0.969   3.109  1.1461  0.0921  0.0317
 2295SOL     OW 6944   4.644   4.575   3.948 -0.0486 -0.3639  0.1400
 2295SOL    HW1 6945   4.700   4.556   3.873  1.3110 -0.4728  1.1302
 2295SOL    HW2 6946   4.661   4.667   3.967  0.5955 -0.6559  1.0570
 2296SOL     OW 6947   0.343   1.233   2.344 -0.2578 -0.2314  0.5929
 2296SOL    HW1 6948   0.408   1.195   2.285  0.0882 -0.9578  1.4151
 2296SOL    HW2 6949   0.301   1.158   2.386  1.7725  0.1719  3.7004
 2297SOL     OW 6950   0.110   1.859   0.305  0.2228 -0.0211  0.6023
 2297SOL    HW1 6951   0.197   1.820   0.316  0.1173 -0.0937  1.2271
 2297SOL    HW2 6952   0.049   1.787   0.319 -0.0164  0.5547  3.0912
 2298SOL     OW 6953   2.594   0.990   2.421  0.0944  0.1382  0.1987
 2298SOL    HW1 6954   2.535   0.998   2.347 -0.5000  2.1997  0.8269
 2298SOL    HW2 6955   2.682   0.994   2.382 -0.2070  1.5134 -0.4128
 2299SOL     OW 6956   2.500   1.365   1.493 -0.1488 -0.3674 -0.1577
 2299SOL    HW1 6957   2.551   1.331   1.566  0.1270  0.6969  0.1728
 2299SOL    HW2 6958   2.428   1.414   1.535 -1.9720 -2.5070 -0.6026
 2300SOL     OW 6959   3.797   5.049   4.417  0.5362 -0.1533 -0.2358
 2300SOL    HW1 6960   3.748   5.119   4.374  0.8619  0.7763  0.8722
 2300SOL    HW2 6961   3.871   5.093   4.458  0.5253 -1.0911  0.8259
 2301SOL     OW 6962   3.481   0.520   2.774  0.6518 -0.2196 -0.4440
 2301SOL    HW1 6963   3.445   0.443   2.729 -3.7382  1.1285  0.2995
 2301SOL    HW2 6964   3.532   0.565   2.707 -0.8855 -1.2623 -2.4352
 2302SOL     OW 6965   1.098   1.106   2.476  0.1617  0.0132 -0.3913
 2302SOL    HW1 6966   1.165   1.141   2.418  0.5327  0.9588  0.5764
 2302SOL    HW2 6967   1.119   1.013   2.484  2.4439  0.5916  1.2616
 2303SOL     OW 6968   3.951   0.683   3.177 -0.6332 -0.6940 -0.4679
 2303SOL    HW1 6969   3.972   0.762   3.128 -1.0069  0.4387  1.1017
 2303SOL    HW2 6970   3.979   0.611   3.121  1.1688  0.5773 -1.2754
 2304SOL     OW 6971   2.493   0.224   0.911  0.5857 -0.3901  0.0547
 2304SOL    HW1 6972   2.578   0.193   0.879 -0.3778 -1.8253 -1.2760
 2304SOL    HW2 6973   2.437   0.146   0.910 -0.8034  0.5626  0.7201
 2305SOL     OW 6974   4.462   2.418   4.256  0.2556  0.6042  0.2629
 2305SOL    HW1 6975   4.501   2.436   4.171  2.2198  0.1010  1.0109
 2305SOL    HW2 6976   4.392   2.484   4.265  0.2303  0.8726 -1.5616
 2306SOL     OW 6977   5.460   2.787   1.579  0.3654 -0.2815  0.1917
 2306SOL    HW1 6978   5.530   2.821   1.523  0.6158  0.2812  0.8415
 2306SOL    HW2 6979   5.503   2.768   1.662 -0.6425  2.1584  1.3475
 2307SOL     OW 6980   4.662   4.182   2.618  0.7107  0.9118  0.9174
 2307SOL    HW1 6981   4.653   4.278   2.620  0.7180  0.9181  0.7314
 2307SOL    HW2 6982   4.573   4.150   2.634  0.8502  0.9373  1.7790
 2308SOL     OW 6983   4.204   4.606   1.381 -0.7364  0.2909  0.7412
 2308SOL    HW1 6984   4.287   4.570   1.411 -0.3187  1.2794  0.8079
 2308SOL    HW2 6985   4.140   4.537   1.398 -0.0676 -0.1550  1.4820
 2309SOL     OW 6986   4.357   2.646   2.796 -0.2866 -0.4674  0.2152
 2309SOL    HW1 6987   4.323   2.655   2.707  0.9531 -0.4465 -0.2738
 2309SOL    HW2 6988   4.428   2.582   2.788 -1.7476 -2.4247  1.6393
 2310SOL     OW 6989   5.162   0.430   2.548 -0.2706 -0.0756  0.4421
 2310SOL    HW1 6990   5.162   0.349   2.496 -1.7553  0.2065 -0.0450
 2310SOL    HW2 6991   5.172   0.499   2.483 -1.0519  0.2253  0.6322
 2311SOL     OW 6992   3.495   2.973   1.495 -0.4030 -1.0962 -0.9585
 2311SOL    HW1 6993   3.430   2.903   1.506 -1.1423 -0.2134  0.7743
 2311SOL    HW2 6994   3.473   3.037   1.563  1.6085 -0.2159 -1.0586
 2312SOL     OW 6995   3.753   5.052   0.956  0.1783  0.0698 -0.1240
 2312SOL    HW1 6996   3.706   5.135   0.954  0.4294  0.2051 -0.6822
 2312SOL    HW2 6997   3.829   5.069   1.011  1.0779  0.6904 -1.5009
 2313SOL     OW 6998   4.555   4.166   4.418  0.7699  0.3220  0.5065
 2313SOL    HW1 6999   4.551   4.182   4.324  0.6835  0.6520  0.5676
 2313SOL    HW2 7000   4.469   4.130   4.440  0.5760  0.8129  0.5645
 2314SOL     OW 7001   3.050   0.676   4.142  0.3325 -0.0948  0.4686
 2314SOL    HW1 7002   2.992   0.603   4.166  0.1641 -0.4138 -0.8548
 2314SOL    HW2 7003   2.993   0.737   4.096  1.2476 -1.0087 -2.0084
 2315SOL     OW 7004   2.494   0.132   3.765  0.2683  0.5446  0.0229
 2315SOL    HW1 7005   2.530   0.108   3.680 -0.8907 -0.1283 -0.3002
 2315SOL    HW2 7006   2.419   0.188   3.745 -0.6355 -0.4401  0.5263
 2316SOL     OW 7007   2.213   4.771   2.753  0.1130  0.0228 -0.3559
 2316SOL    HW1 7008   2.118   4.767   2.744 -0.0433  0.5229  0.8160
 2316SOL    HW2 7009   2.237   4.859   2.724  0.2060 -0.0886 -0.6124
 2317SOL     OW 7010   3.681   3.375   1.030 -0.7465  0.4914  0.5219
 2317SOL    HW1 7011   3.613   3.386   0.963 -0.3985 -2.5268 -0.4695
 2317SOL    HW2 7012   3.633   3.381   1.113 -1.7760  0.9380 -0.0779
 2318SOL     OW 7013   4.916   4.705   0.425  0.2303  0.0439 -0.3602
 2318SOL    HW1 7014   4.991   4.740   0.377  1.4953 -1.0291  0.7651
 2318SOL    HW2 7015   4.945   4.704   0.516 -0.4309 -2.1508 -0.1236
 2319SOL     OW 7016   5.385   1.317   2.644  0.0696 -0.3787 -0.7668
 2319SOL    HW1 7017   5.467   1.366   2.639 -0.4117  0.6037  0.3211
 2319SOL    HW2 7018   5.340   1.336   2.562 -0.1276  1.0795 -0.3510
 2320SOL     OW 7019   2.061   4.431   0.877 -0.3466  0.0603  0.3485
 2320SOL    HW1 7020   2.000   4.387   0.935  0.1784 -0.6500  0.3694
 2320SOL    HW2 7021   2.109   4.360   0.834  1.9628  0.5824  1.8965
 2321SOL     OW 7022   4.143   2.085   1.159 -0.4170 -0.0847 -0.2306
 2321SOL    HW1 7023   4.070   2.029   1.185  1.5501 -2.2051  1.0819
 2321SOL    HW2 7024   4.149   2.073   1.064 -1.3927 -0.3285 -0.2785
 2322SOL     OW 7025   1.614   1.540   0.371  0.0060  0.7421  0.3792
 2322SOL    HW1 7026   1.630   1.634   0.365 -1.6210  1.0092 -0.3041
 2322SOL    HW2 7027   1.556   1.521   0.297  0.0180 -0.7354  0.7167
 2323SOL     OW 7028   1.762   4.900   3.972 -0.4005  0.4321 -0.2204
 2323SOL    HW1 7029   1.793   4.989   3.962  0.5218 -0.0099 -1.6530
 2323SOL    HW2 7030   1.788   4.856   3.891 -1.8566 -0.8404 -0.0615
 2324SOL     OW 7031   0.912   0.388   1.714 -0.0123  0.1881 -0.4406
 2324SOL    HW1 7032   0.974   0.429   1.774 -0.1491  0.2547 -0.3456
 2324SOL    HW2 7033   0.908   0.447   1.639  0.8233 -0.3269 -0.9058
 2325SOL     OW 7034   3.482   0.897   4.043 -0.0718  0.1164  0.6792
 2325SOL    HW1 7035   3.411   0.961   4.047 -0.1698  0.0785 -0.2621
 2325SOL    HW2 7036   3.440   0.817   4.012  0.4193  0.1476 -0.0747
 2326SOL     OW 7037   0.414   4.175   3.498  0.4765 -0.3961 -0.3325
 2326SOL    HW1 7038   0.428   4.134   3.412  0.2702 -1.8279  0.2892
 2326SOL    HW2 7039   0.473   4.128   3.557 -1.3212 -1.3196  0.8305
 2327SOL     OW 7040   1.818   2.294   0.877 -0.6069  0.0528  0.0877
 2327SOL    HW1 7041   1.836   2.350   0.953 -0.6427  0.3125 -0.0930
 2327SOL    HW2 7042   1.889   2.230   0.876 -1.3798 -0.8640  1.1880
 2328SOL     OW 7043   1.192   1.291   2.836  0.4153 -0.1784  0.1105
 2328SOL    HW1 7044   1.117   1.339   2.800  0.3362  0.1768  0.7223
 2328SOL    HW2 7045   1.256   1.359   2.857  0.8810 -0.4755 -0.3393
 2329SOL     OW 7046   2.202   4.497   1.343 -0.3331  0.7421  0.3889
 2329SOL    HW1 7047   2.250   4.433   1.395 -0.9300  1.1256  1.4323
 2329SOL    HW2 7048   2.110   4.473   1.352 -0.3837  0.0031 -1.6132
 2330SOL     OW 7049   1.129   2.917   2.525 -0.1502  0.2612  0.2774
 2330SOL    HW1 7050   1.117   2.929   2.430 -0.0193  0.3234  0.2688
 2330SOL    HW2 7051   1.205   2.860   2.532 -0.6283 -0.3731  0.3243
 2331SOL     OW 7052   0.171   4.787   4.006  0.1636 -0.1950 -0.1025
 2331SOL    HW1 7053   0.156   4.838   3.926 -1.8363 -0.0014  0.3260
 2331SOL    HW2 7054   0.224   4.845   4.061 -1.1349  1.0119 -0.0598
 2332SOL     OW 7055   1.276   4.689   3.408  0.3224  0.1614  0.5753
 2332SOL    HW1 7056   1.251   4.763   3.464  2.4551  1.5238 -0.1789
 2332SOL    HW2 7057   1.313   4.730   3.329 -0.0590 -1.7259 -0.6508
 2333SOL     OW 7058   1.581   1.932   3.557 -0.3962 -0.3462  1.0213
 2333SOL    HW1 7059   1.504   1.902   3.509  0.5388 -0.6675 -0.3458
 2333SOL    HW2 7060   1.576   2.028   3.552 -0.3925 -0.3743  0.4159
 2334SOL     OW 7061   4.329   2.912   0.742 -0.5452 -0.0331  0.2835
 2334SOL    HW1 7062   4.403   2.920   0.683 -1.1124 -0.1003 -0.4411
 2334SOL    HW2 7063   4.368   2.918   0.830  0.4750 -1.4532 -0.0457
 2335SOL     OW 7064   0.901   0.742   4.086 -0.2572 -0.2282 -0.0472
 2335SOL    HW1 7065   0.949   0.821   4.060  1.3235 -0.5328  1.7765
 2335SOL    HW2 7066   0.961   0.670   4.066 -1.1304 -0.8816 -0.3758
 2336SOL     OW 7067   3.475   0.314   2.523  0.7933 -0.1796 -0.0872
 2336SOL    HW1 7068   3.442   0.248   2.584  0.4750  0.3207  0.2953
 2336SOL    HW2 7069   3.462   0.276   2.436 -1.1991  0.1679  0.0208
 2337SOL     OW 7070   0.593   2.333   2.772  0.0019 -0.0143 -0.0394
 2337SOL    HW1 7071   0.607   2.255   2.826  0.4280  0.1030  0.0230
 2337SOL    HW2 7072   0.554   2.299   2.691 -2.3693 -0.0107  1.0137
 2338SOL     OW 7073   3.047   2.741   3.673 -0.1976 -0.2853  0.3376
 2338SOL    HW1 7074   3.118   2.687   3.708 -1.6125 -1.6001  1.2975
 2338SOL    HW2 7075   2.993   2.681   3.622 -0.1461  0.8915 -1.1756
 2339SOL     OW 7076   4.903   3.743   0.999 -0.0029  0.1238 -0.1479
 2339SOL    HW1 7077   4.973   3.679   0.985  0.8214  0.7137  1.0927
 2339SOL    HW2 7078   4.882   3.774   0.911  2.0318  0.6903 -0.4962
 2340SOL     OW 7079   1.265   4.356   1.353  0.4070  0.2953  0.4054
 2340SOL    HW1 7080   1.188   4.409   1.372 -0.0153 -0.0322 -0.3263
 2340SOL    HW2 7081   1.243   4.269   1.387  0.2353  0.0732 -0.2560
 2341SOL     OW 7082   3.268   0.467   1.159 -0.3289 -0.0364 -0.3668
 2341SOL    HW1 7083   3.301   0.516   1.084 -1.3764 -0.4226 -1.1055
 2341SOL    HW2 7084   3.262   0.376   1.129 -0.1463 -0.3157  0.4000
 2342SOL     OW 7085   0.535   1.254   3.996  0.1572 -0.1494  0.2845
 2342SOL    HW1 7086   0.455   1.201   3.988 -1.1723  1.7857 -0.0352
 2342SOL    HW2 7087   0.523   1.302   4.078  0.9628  0.2124  0.1959
 2343SOL     OW 7088   1.707   2.346   2.779  0.1857  0.0272 -0.0541
 2343SOL    HW1 7089   1.681   2.402   2.851  2.5529  2.8589 -1.2090
 2343SOL    HW2 7090   1.645   2.365   2.709  0.6542  0.8231 -0.2594
 2344SOL     OW 7091   3.340   2.952   3.931  0.0163  0.3814 -0.3853
 2344SOL    HW1 7092   3.250   2.938   3.904 -0.0778 -1.4617  0.7653
 2344SOL    HW2 7093   3.392   2.902   3.868  0.1014 -0.0851  0.0505
 2345SOL     OW 7094   2.533   2.498   0.440  0.1553  0.0829  0.1137
 2345SOL    HW1 7095   2.510   2.566   0.502 -2.8504 -1.7819  1.2492
 2345SOL    HW2 7096   2.629   2.503   0.433  0.2613  2.6482  2.1255
 2346SOL     OW 7097   5.094   1.610   2.488  0.0654  0.1781 -0.0317
 2346SOL    HW1 7098   5.055   1.575   2.568 -1.4421  0.4369 -0.6154
 2346SOL    HW2 7099   5.163   1.548   2.466  1.7709  1.0687  2.4401
 2347SOL     OW 7100   4.232   1.610   0.575 -0.0720 -0.7290 -0.1583
 2347SOL    HW1 7101   4.164   1.560   0.621  1.4292 -1.3916  1.4394
 2347SOL    HW2 7102   4.188   1.642   0.496 -2.6993  0.1807  1.5319
 2348SOL     OW 7103   2.940   2.327   4.463 -0.4173 -0.5888 -0.0863
 2348SOL    HW1 7104   2.934   2.331   4.558  0.2442 -0.0875 -0.0595
 2348SOL    HW2 7105   3.033   2.340   4.444 -0.7041  0.4358 -0.8432
 2349SOL     OW 7106   0.547   1.705   1.886  0.0006  0.1618  0.0278
 2349SOL    HW1 7107   0.624   1.728   1.938 -0.2462  1.3361 -0.0991
 2349SOL    HW2 7108   0.476   1.757   1.924 -0.4329  0.1536 -0.7419
 2350SOL     OW 7109   3.003   1.230   4.355 -0.4064  0.0301  0.2301
 2350SOL    HW1 7110   2.925   1.286   4.353  0.4290  1.2138 -1.7469
 2350SOL    HW2 7111   2.969   1.141   4.348 -1.6539  0.3635  1.4529
 2351SOL     OW 7112   4.042   2.762   0.264 -0.2044 -0.3106  0.4773
 2351SOL    HW1 7113   4.103   2.807   0.206 -0.6850  1.5233  1.3254
 2351SOL    HW2 7114   4.097   2.726   0.334  0.0069  0.8919  0.9604
 2352SOL     OW 7115   2.645   1.787   0.273 -0.2185  0.0881 -0.3384
 2352SOL    HW1 7116   2.636   1.875   0.236 -2.0743 -0.3409 -1.0163
 2352SOL    HW2 7117   2.572   1.779   0.334  0.0624 -0.8895 -0.1117
 2353SOL     OW 7118   4.508   3.343   3.930  0.6984 -0.2496 -0.1014
 2353SOL    HW1 7119   4.458   3.341   3.848  0.4549 -0.0909  0.0406
 2353SOL    HW2 7120   4.599   3.341   3.903  0.6158 -0.4817 -0.3687
 2354SOL     OW 7121   1.052   1.921   2.297  0.3547 -0.3251 -0.1975
 2354SOL    HW1 7122   1.044   2.011   2.267  0.1274  0.2411  1.4441
 2354SOL    HW2 7123   1.049   1.927   2.392 -1.2283 -2.2147 -0.0628
 2355SOL     OW 7124   3.284   3.640   1.837 -0.4946  0.2190  0.3670
 2355SOL    HW1 7125   3.283   3.621   1.931 -0.9660 -2.6931 -0.1184
 2355SOL    HW2 7126   3.192   3.645   1.813 -0.4077 -0.2835 -0.1074
 2356SOL     OW 7127   5.082   5.032   2.133  0.5076 -0.6590 -0.3900
 2356SOL    HW1 7128   5.042   4.952   2.099  0.8277 -1.6204  1.3923
 2356SOL    HW2 7129   5.013   5.073   2.185  0.1316  0.6157 -1.8258
 2357SOL     OW 7130   4.055   3.819   0.225  0.2962  0.1838  0.1458
 2357SOL    HW1 7131   4.049   3.849   0.135  1.7478 -1.5607 -0.6067
 2357SOL    HW2 7132   4.111   3.883   0.269  1.5576 -0.2041 -0.8438
 2358SOL     OW 7133   1.109   4.356   2.735  0.7548  0.0685  0.0425
 2358SOL    HW1 7134   1.132   4.447   2.721 -2.3767  1.4911  2.7029
 2358SOL    HW2 7135   1.136   4.338   2.826  0.9229 -1.5195 -0.2830
 2359SOL     OW 7136   3.065   1.316   2.658  0.1628  0.5432 -0.3190
 2359SOL    HW1 7137   2.998   1.348   2.597 -0.7532  0.3328  0.5504
 2359SOL    HW2 7138   3.059   1.221   2.652  0.5837  0.5243 -0.4471
 2360SOL     OW 7139   4.555   2.045   2.866  0.0776 -0.2201  0.1687
 2360SOL    HW1 7140   4.543   2.126   2.817 -0.6612  0.7229  1.8416
 2360SOL    HW2 7141   4.637   2.057   2.913  0.6788 -1.0412 -0.6207
 2361SOL     OW 7142   2.869   1.816   1.027  0.1232 -0.3703 -0.2476
 2361SOL    HW1 7143   2.850   1.741   1.083 -1.4042 -0.7440 -1.2206
 2361SOL    HW2 7144   2.823   1.798   0.945  3.0868 -0.3261 -2.0917
 2362SOL     OW 7145   2.781   4.669   0.394  0.3325  0.2509  0.0828
 2362SOL    HW1 7146   2.807   4.760   0.383 -0.2063  0.3081 -0.8157
 2362SOL    HW2 7147   2.817   4.624   0.317 -0.4982 -0.0360 -0.1531
 2363SOL     OW 7148   1.585   0.655   0.797 -0.2645  0.0019  0.3252
 2363SOL    HW1 7149   1.643   0.690   0.865 -0.4553  0.1714  0.4018
 2363SOL    HW2 7150   1.587   0.721   0.728 -0.5048  0.0940  0.4044
 2364SOL     OW 7151   1.977   3.792   1.110  0.0239  0.3373  0.2785
 2364SOL    HW1 7152   2.013   3.866   1.158  0.3661 -0.8409  1.9143
 2364SOL    HW2 7153   1.900   3.765   1.160 -0.4416 -0.0700 -0.6147
 2365SOL     OW 7154   0.642   3.017   0.019 -0.9211 -0.0754 -0.5287
 2365SOL    HW1 7155   0.706   3.026  -0.051 -1.8316 -2.4032 -1.7621
 2365SOL    HW2 7156   0.639   3.104   0.060  2.3643  0.3709 -0.9232
 2366SOL     OW 7157   1.874   2.139   2.716  0.8373 -0.1835 -0.3013
 2366SOL    HW1 7158   1.927   2.177   2.646  0.2984 -1.4564 -1.4709
 2366SOL    HW2 7159   1.795   2.194   2.719  0.2737 -0.8637 -1.6469
 2367SOL     OW 7160   4.680   4.593   4.379 -0.3407 -0.2442  0.2776
 2367SOL    HW1 7161   4.641   4.626   4.460  0.3739 -2.3231  1.5460
 2367SOL    HW2 7162   4.607   4.560   4.328 -0.5809 -1.5819  1.4145
 2368SOL     OW 7163   5.210   0.382   2.009  0.1313 -0.9129  0.3253
 2368SOL    HW1 7164   5.286   0.440   2.008 -0.3310 -0.2520  1.6723
 2368SOL    HW2 7165   5.212   0.338   1.924  0.4131  1.1863 -0.8198
 2369SOL     OW 7166   0.084   4.376   3.161 -0.1431  0.2227  0.1976
 2369SOL    HW1 7167   0.109   4.421   3.242 -0.1645 -1.0945  0.9677
 2369SOL    HW2 7168   0.165   4.333   3.132 -0.5987 -1.0005  0.6721
 2370SOL     OW 7169   4.969   4.739   1.520  0.7072  0.4322  0.3735
 2370SOL    HW1 7170   4.975   4.769   1.429  0.4277  2.2703  0.9111
 2370SOL    HW2 7171   4.880   4.704   1.528  0.0720  1.9691  0.3822
 2371SOL     OW 7172   4.604   0.033   4.255  0.1310 -0.0709  0.3570
 2371SOL    HW1 7173   4.599   0.090   4.178 -0.3141 -1.5884 -0.7774
 2371SOL    HW2 7174   4.518   0.038   4.295 -0.8967 -2.1353 -1.4151
 2372SOL     OW 7175   1.511   4.889   1.530  0.4448 -0.0774 -0.1880
 2372SOL    HW1 7176   1.438   4.904   1.589  0.3624  0.7187 -0.4844
 2372SOL    HW2 7177   1.583   4.860   1.586  0.5351  1.1900  0.3810
 2373SOL     OW 7178   0.827   4.325   2.700 -0.0005  0.0400 -0.1673
 2373SOL    HW1 7179   0.918   4.353   2.701  0.3845 -1.0726 -1.8037
 2373SOL    HW2 7180   0.821   4.259   2.770  0.2184  0.7181  0.5062
 2374SOL     OW 7181   0.766   0.214   1.533  1.0485  0.3237 -0.5077
 2374SOL    HW1 7182   0.795   0.131   1.570 -1.7951 -0.6371 -0.1964
 2374SOL    HW2 7183   0.811   0.281   1.585  1.9171 -1.0186  0.5195
 2375SOL     OW 7184   0.862   1.446   3.312 -0.3365  0.0805 -0.4849
 2375SOL    HW1 7185   0.828   1.412   3.395 -0.2927 -0.9691 -0.8742
 2375SOL    HW2 7186   0.940   1.495   3.336  0.9137 -1.9798 -0.0510
 2376SOL     OW 7187   4.929   1.022   3.621 -0.4505  0.3986 -0.3345
 2376SOL    HW1 7188   4.920   1.007   3.527 -1.9702 -0.3337 -0.0937
 2376SOL    HW2 7189   5.021   1.047   3.633  0.3428 -1.6396 -1.7250
 2377SOL     OW 7190   3.081   0.424   2.747 -0.0785 -0.8589 -0.1721
 2377SOL    HW1 7191   3.052   0.515   2.739 -0.6024 -0.9602  0.5082
 2377SOL    HW2 7192   3.006   0.378   2.784  0.1683 -1.5809 -0.5443
 2378SOL     OW 7193   3.712   3.601   1.365 -0.0291  0.3215 -0.4652
 2378SOL    HW1 7194   3.742   3.644   1.285  0.5769  0.7444 -0.0254
 2378SOL    HW2 7195   3.661   3.526   1.335  0.7875  0.0616 -1.2543
 2379SOL     OW 7196   3.245   1.572   4.233  0.4285  0.5409  0.5660
 2379SOL    HW1 7197   3.306   1.579   4.307  0.8186 -0.4465  0.3443
 2379SOL    HW2 7198   3.217   1.481   4.233  1.1483  0.2889 -1.0565
 2380SOL     OW 7199   2.901   3.477   0.073 -0.3524  0.4401  0.0283
 2380SOL    HW1 7200   2.938   3.515  -0.007  0.3955 -0.9284 -0.3032
 2380SOL    HW2 7201   2.930   3.536   0.143  2.3779 -0.4690 -0.2379
 2381SOL     OW 7202   1.718   1.445   2.182  0.1748  0.2101 -0.2054
 2381SOL    HW1 7203   1.807   1.480   2.184  1.1056 -1.9870  1.5464
 2381SOL    HW2 7204   1.705   1.408   2.269 -0.6686 -3.6011 -1.7497
 2382SOL     OW 7205   3.011   0.409   4.089 -0.2631  0.6397 -0.0584
 2382SOL    HW1 7206   3.083   0.387   4.149 -0.1891 -0.0028 -0.3737
 2382SOL    HW2 7207   3.025   0.352   4.014 -0.8052  0.8912 -0.3523
 2383SOL     OW 7208   0.887   0.855   0.862 -0.2498 -0.0777 -0.3234
 2383SOL    HW1 7209   0.898   0.801   0.940  1.0606  0.3830 -0.1642
 2383SOL    HW2 7210   0.830   0.927   0.889 -1.2938 -0.8963 -0.3034
 2384SOL     OW 7211   0.632   3.290   2.194 -0.4957  0.0381  0.1668
 2384SOL    HW1 7212   0.538   3.297   2.176 -0.3304  1.8430 -0.2108
 2384SOL    HW2 7213   0.659   3.208   2.152 -1.6093  0.3003 -1.1397
 2385SOL     OW 7214   2.075   4.156   4.063 -0.7775 -0.1914 -0.3221
 2385SOL    HW1 7215   2.033   4.146   4.149  1.7273  0.9672  1.1420
 2385SOL    HW2 7216   2.042   4.240   4.030 -0.2323  0.3335  0.4461
 2386SOL     OW 7217   3.781   2.053   4.104  0.3134 -0.5046  0.4993
 2386SOL    HW1 7218   3.866   2.082   4.070 -0.0537 -1.1098 -1.0057
 2386SOL    HW2 7219   3.743   2.002   4.033 -0.9471 -0.9778  1.4772
 2387SOL     OW 7220   2.532   3.953   1.796  0.2495  0.0032 -0.4230
 2387SOL    HW1 7221   2.521   3.951   1.891  0.7616  0.0267 -0.3593
 2387SOL    HW2 7222   2.569   4.039   1.777 -0.9577  0.4720 -0.7806
 2388SOL     OW 7223   3.104   1.679   0.215 -0.1570 -0.9812 -0.2165
 2388SOL    HW1 7224   3.095   1.716   0.127 -0.5085  0.5924  0.4403
 2388SOL    HW2 7225   3.017   1.642   0.234 -0.6117  0.1817  0.0838
 2389SOL     OW 7226   0.277   1.441   1.852  1.1167 -0.0909  0.6295
 2389SOL    HW1 7227   0.290   1.349   1.876  0.4378 -0.4868 -0.4900
 2389SOL    HW2 7228   0.341   1.457   1.783  0.5325 -0.0151  0.1049
 2390SOL     OW 7229   2.038   2.740   2.929 -0.0419 -0.0257 -0.3421
 2390SOL    HW1 7230   1.957   2.788   2.947 -0.0978 -0.5271  0.7802
 2390SOL    HW2 7231   2.107   2.804   2.943 -0.1008 -0.3044  1.4007
 2391SOL     OW 7232   5.238   2.844   3.279 -0.4896 -0.3762  0.3487
 2391SOL    HW1 7233   5.297   2.852   3.355 -0.6014  1.6923  0.2756
 2391SOL    HW2 7234   5.292   2.804   3.211  0.5441  0.4858  0.6226
 2392SOL     OW 7235   1.275   0.458   2.447  0.4665  0.4368 -0.3334
 2392SOL    HW1 7236   1.201   0.513   2.423 -0.6465 -0.5207  0.8451
 2392SOL    HW2 7237   1.321   0.442   2.364 -0.3340  1.4649 -0.9855
 2393SOL     OW 7238   4.482   0.634   3.965 -0.7392  0.0387 -0.4909
 2393SOL    HW1 7239   4.465   0.576   4.039 -1.3331  1.4276  0.5122
 2393SOL    HW2 7240   4.404   0.626   3.910  0.9849 -3.4230 -2.7647
 2394SOL     OW 7241   3.284   1.106   0.010  0.2242 -0.3427  0.4420
 2394SOL    HW1 7242   3.251   1.016   0.012  0.1862 -0.3107  1.4689
 2394SOL    HW2 7243   3.208   1.160  -0.011  0.4841 -0.6344 -1.4699
 2395SOL     OW 7244   0.821   1.565   3.055 -0.5731  0.3687  0.1322
 2395SOL    HW1 7245   0.830   1.493   3.119 -0.7083 -0.5406 -0.8469
 2395SOL    HW2 7246   0.905   1.568   3.010 -1.4481 -1.0536 -1.7195
 2396SOL     OW 7247   1.104   2.967   4.368  0.5194  0.0417 -0.5043
 2396SOL    HW1 7248   1.087   2.963   4.462 -0.4063  0.2915 -0.6545
 2396SOL    HW2 7249   1.060   2.890   4.332  1.8100 -0.6893 -0.6204
 2397SOL     OW 7250   2.261   3.558   3.964  0.5123 -0.1682  0.2288
 2397SOL    HW1 7251   2.354   3.577   3.948  0.6534 -0.9329  0.0697
 2397SOL    HW2 7252   2.253   3.559   4.059  0.2465  1.8204  0.2127
 2398SOL     OW 7253   5.253   1.575   0.750  0.3431  0.1867 -0.2928
 2398SOL    HW1 7254   5.184   1.559   0.815 -0.3874 -2.3439 -1.5854
 2398SOL    HW2 7255   5.330   1.529   0.785  0.0295 -0.9323 -1.0180
 2399SOL     OW 7256   4.079   4.885   2.270  0.5014  0.5594  0.2075
 2399SOL    HW1 7257   4.160   4.936   2.270  1.2101 -0.5268 -0.7115
 2399SOL    HW2 7258   4.073   4.848   2.182  0.0817 -1.0494  0.8699
 2400SOL     OW 7259   0.163   4.881   0.329 -0.7379  0.0770 -0.3151
 2400SOL    HW1 7260   0.256   4.867   0.349 -0.1887  2.6588 -0.7951
 2400SOL    HW2 7261   0.136   4.799   0.287  1.9314  0.0385 -2.2357
 2401SOL     OW 7262   2.382   1.413   4.083  0.0481  0.2712  0.4446
 2401SOL    HW1 7263   2.335   1.351   4.139  2.0312 -0.4403  1.3901
 2401SOL    HW2 7264   2.339   1.497   4.099 -1.0588 -0.3868  1.0571
 2402SOL     OW 7265   2.602   2.338   1.162  0.3541 -0.4362  0.4686
 2402SOL    HW1 7266   2.559   2.362   1.245 -1.0984 -0.3403 -0.2768
 2402SOL    HW2 7267   2.694   2.361   1.175 -0.3559  2.5586  0.9372
 2403SOL     OW 7268   0.071   3.096   3.785 -0.0658 -0.5279  0.4357
 2403SOL    HW1 7269   0.143   3.067   3.729  0.8772 -0.4370  1.5667
 2403SOL    HW2 7270   0.107   3.094   3.873 -0.7804  1.5885  0.8212
 2404SOL     OW 7271   0.331   0.602   3.286  0.5704  0.3955  0.3524
 2404SOL    HW1 7272   0.271   0.545   3.239  0.6744  1.0608 -0.6205
 2404SOL    HW2 7273   0.401   0.544   3.317  1.3091  0.1469 -1.6610
 2405SOL     OW 7274   3.687   0.891   0.311  0.3720 -0.4243  0.4570
 2405SOL    HW1 7275   3.770   0.852   0.339  0.5881 -0.1853  0.1512
 2405SOL    HW2 7276   3.628   0.877   0.385  1.3526  1.5296  1.7217
 2406SOL     OW 7277   2.339   0.580   2.901  0.0382  0.1893  0.3095
 2406SOL    HW1 7278   2.397   0.650   2.871  0.0787  0.1234  0.2328
 2406SOL    HW2 7279   2.398   0.507   2.919  0.1066  0.4916  1.3466
 2407SOL     OW 7280   5.165   4.957   1.167  0.3745 -0.6602  0.0090
 2407SOL    HW1 7281   5.088   4.951   1.224  0.6733 -1.6956  0.3267
 2407SOL    HW2 7282   5.228   4.898   1.207  2.5294  2.3695  1.5463
 2408SOL     OW 7283   2.644   4.651   2.200  0.2718  0.3577 -0.4903
 2408SOL    HW1 7284   2.581   4.648   2.272 -0.3340  0.9965 -0.9815
 2408SOL    HW2 7285   2.627   4.734   2.156  1.6480  0.6685 -0.4777
 2409SOL     OW 7286   0.959   0.177   0.677  0.3337 -0.2753 -0.1974
 2409SOL    HW1 7287   1.046   0.163   0.714  0.7361  1.4026 -0.4212
 2409SOL    HW2 7288   0.899   0.151   0.746  1.0416  0.3779  0.6868
 2410SOL     OW 7289   1.209   2.418   2.798  0.3880 -0.1518 -0.2749
 2410SOL    HW1 7290   1.278   2.360   2.831  0.7543  1.1879  1.4449
 2410SOL    HW2 7291   1.132   2.397   2.851  0.4648  0.7375  0.2199
 2411SOL     OW 7292   4.047   2.121   3.508  0.3134 -0.7093  0.7222
 2411SOL    HW1 7293   4.138   2.106   3.534  1.0154  0.6986 -0.7897
 2411SOL    HW2 7294   4.039   2.075   3.424 -0.3634 -0.7523  0.8074
 2412SOL     OW 7295   2.016   4.442   2.220 -0.0691 -0.7163 -0.0397
 2412SOL    HW1 7296   2.103   4.475   2.241  0.4597 -1.1221 -1.5143
 2412SOL    HW2 7297   1.996   4.479   2.134 -1.6109 -0.1752  0.5128
 2413SOL     OW 7298   4.403   0.866   4.244  0.2555 -0.4874 -0.0045
 2413SOL    HW1 7299   4.319   0.822   4.235  0.4414 -1.2087  1.4332
 2413SOL    HW2 7300   4.444   0.858   4.158  0.0221 -2.6439  0.0230
 2414SOL     OW 7301   2.186   2.909   0.434 -0.0870  0.1718  0.0191
 2414SOL    HW1 7302   2.262   2.933   0.487 -0.8864  0.3236  1.1251
 2414SOL    HW2 7303   2.138   2.991   0.423 -1.4435 -0.3660  1.5659
 2415SOL     OW 7304   0.958   4.654   3.037 -0.1964  0.2533 -0.0599
 2415SOL    HW1 7305   1.003   4.733   3.006  0.6928 -0.0883  0.3312
 2415SOL    HW2 7306   1.015   4.582   3.010  0.0327 -0.1189  1.3582
 2416SOL     OW 7307   4.652   4.561   2.422 -0.1924 -0.1570  0.3308
 2416SOL    HW1 7308   4.725   4.622   2.424 -0.0328 -0.3386  0.1061
 2416SOL    HW2 7309   4.593   4.595   2.355 -0.4286  0.1176  0.6745
 2417SOL     OW 7310   3.036   4.447   3.229  0.0299  0.4672 -0.2662
 2417SOL    HW1 7311   3.092   4.461   3.153  0.3187 -0.5544 -0.2510
 2417SOL    HW2 7312   3.053   4.524   3.285 -0.1545  1.2031 -1.1891
 2418SOL     OW 7313   1.427   2.516   2.546 -0.6408 -0.0516 -0.8414
 2418SOL    HW1 7314   1.497   2.529   2.482  0.0673  2.0514  0.2570
 2418SOL    HW2 7315   1.346   2.530   2.497 -0.2720 -1.1463 -1.8206
 2419SOL     OW 7316   3.363   1.844   0.484 -0.2478 -0.1652 -0.1945
 2419SOL    HW1 7317   3.351   1.841   0.389 -0.8701  0.9090 -0.1663
 2419SOL    HW2 7318   3.457   1.854   0.496  0.0350 -1.9651 -0.6289
 2420SOL     OW 7319   4.041   2.288   0.071 -0.7717 -0.4771 -0.1426
 2420SOL    HW1 7320   4.006   2.371   0.103  0.9602  0.1037  0.3597
 2420SOL    HW2 7321   4.059   2.303  -0.022 -2.4212 -1.0009 -0.5772
 2421SOL     OW 7322   5.463   4.648   4.254  0.1469  0.0475  0.3943
 2421SOL    HW1 7323   5.495   4.558   4.252 -0.3906 -0.1398  0.2343
 2421SOL    HW2 7324   5.543   4.701   4.250  0.4600 -0.4173  0.3785
 2422SOL     OW 7325   3.422   4.691   1.471 -0.1115  0.1889 -0.0529
 2422SOL    HW1 7326   3.355   4.707   1.404 -0.3314 -3.0504 -0.7764
 2422SOL    HW2 7327   3.391   4.614   1.518  2.4789 -0.6329  0.4529
 2423SOL     OW 7328   5.414   1.909   2.288  0.7716 -0.2356 -0.1759
 2423SOL    HW1 7329   5.318   1.912   2.288  0.7822  1.7747  0.6696
 2423SOL    HW2 7330   5.439   1.929   2.378  1.9776  0.7706 -0.7083
 2424SOL     OW 7331   2.614   1.981   1.747  0.0753  0.0042  0.2264
 2424SOL    HW1 7332   2.676   1.963   1.676  0.6509 -0.1728  0.7625
 2424SOL    HW2 7333   2.633   1.914   1.813  1.2847  1.6582  1.6471
 2425SOL     OW 7334   2.142   0.958   1.700  0.1732 -0.1228 -0.6488
 2425SOL    HW1 7335   2.153   0.880   1.646 -0.9707 -1.0006  0.3329
 2425SOL    HW2 7336   2.150   0.927   1.790 -4.4821 -0.0590  0.0419
 2426SOL     OW 7337   0.303   3.251   1.046 -0.5614  0.4709  0.6677
 2426SOL    HW1 7338   0.375   3.187   1.048 -0.5853  0.3216 -1.2380
 2426SOL    HW2 7339   0.230   3.205   1.087 -0.0970 -0.0964  0.8764
 2427SOL     OW 7340   1.205   4.125   1.468  0.0125 -0.2975  0.4581
 2427SOL    HW1 7341   1.201   4.061   1.539 -0.9411 -0.6836  0.0666
 2427SOL    HW2 7342   1.201   4.074   1.388  0.7728  0.1596  0.1219
 2428SOL     OW 7343   4.935   1.595   3.948  0.0688  0.3683 -0.3006
 2428SOL    HW1 7344   4.880   1.666   3.978  2.0029  1.3890  1.0582
 2428SOL    HW2 7345   4.937   1.533   4.021  1.0606  0.5818 -0.1244
 2429SOL     OW 7346   2.824   4.361   2.417 -0.9914  0.0215 -1.1596
 2429SOL    HW1 7347   2.872   4.330   2.494 -0.3718  1.2457 -1.0319
 2429SOL    HW2 7348   2.759   4.422   2.453  0.0532  1.4996 -1.6651
 2430SOL     OW 7349   2.773   4.272   3.586  0.0338 -0.4498  0.2967
 2430SOL    HW1 7350   2.750   4.246   3.497 -0.1357 -0.6457  0.3978
 2430SOL    HW2 7351   2.725   4.211   3.643  1.5800 -1.5509  0.5058
 2431SOL     OW 7352   1.029   0.071   0.436 -0.5439 -0.2849  0.2677
 2431SOL    HW1 7353   1.123   0.084   0.437 -0.9026  3.0251  0.2525
 2431SOL    HW2 7354   1.000   0.094   0.525 -1.3798 -1.1561  0.2423
 2432SOL     OW 7355   3.288   4.309   3.718 -0.3855  0.1411 -0.0539
 2432SOL    HW1 7356   3.297   4.242   3.650 -0.3373  0.3559 -0.2602
 2432SOL    HW2 7357   3.202   4.293   3.756 -0.9950  0.8787 -1.0928
 2433SOL     OW 7358   5.083   2.224   2.250  0.2094  0.7529 -0.0249
 2433SOL    HW1 7359   5.105   2.271   2.330 -1.6142 -1.0551  1.6372
 2433SOL    HW2 7360   4.992   2.196   2.262  0.7175 -1.9306 -1.5044
 2434SOL     OW 7361   5.020   2.528   4.036 -0.3538  0.1403  0.7651
 2434SOL    HW1 7362   5.109   2.563   4.025 -0.1792 -0.9568 -1.9566
 2434SOL    HW2 7363   4.974   2.596   4.086  1.3276  1.9003  0.0646
 2435SOL     OW 7364   2.218   1.821   3.412 -0.0421 -0.0014  0.3166
 2435SOL    HW1 7365   2.199   1.893   3.472 -0.5539  0.8111 -0.7747
 2435SOL    HW2 7366   2.257   1.864   3.336  0.6650 -1.0149  0.0933
 2436SOL     OW 7367   4.153   3.697   4.354 -0.4262  0.1341  0.1155
 2436SOL    HW1 7368   4.138   3.769   4.293  2.6099 -0.2205 -1.2310
 2436SOL    HW2 7369   4.093   3.628   4.325 -2.9840  1.8018  1.1006
 2437SOL     OW 7370   2.746   1.711   3.794  0.2177  0.4062 -0.3821
 2437SOL    HW1 7371   2.833   1.671   3.799  0.3916  0.2282 -3.2013
 2437SOL    HW2 7372   2.686   1.642   3.819  0.7809 -0.0439 -0.2496
 2438SOL     OW 7373   2.701   5.136   0.103 -0.4909  0.3536 -0.1044
 2438SOL    HW1 7374   2.612   5.101   0.094 -0.4773 -0.5669  2.5308
 2438SOL    HW2 7375   2.691   5.215   0.155  0.1451  0.7358 -0.5545
 2439SOL     OW 7376   0.083   0.342   2.498  0.2335 -0.5751  0.4525
 2439SOL    HW1 7377   0.079   0.415   2.437  1.4320  1.9926  3.2137
 2439SOL    HW2 7378   0.048   0.377   2.580  0.5153 -3.2274  1.8171
 2440SOL     OW 7379   0.932   3.683   3.061  0.1638 -0.3842 -0.1731
 2440SOL    HW1 7380   0.879   3.641   2.993 -0.0860  0.3151 -0.4296
 2440SOL    HW2 7381   1.022   3.665   3.037  0.0968 -3.5215  1.4900
 2441SOL     OW 7382   0.500   0.355   1.809  0.5217  0.0050 -0.0987
 2441SOL    HW1 7383   0.433   0.380   1.873  0.7621 -1.7572  0.9018
 2441SOL    HW2 7384   0.476   0.404   1.730  0.9159  3.2111  1.5817
 2442SOL     OW 7385   4.030   2.151   4.046  0.2509 -0.1660  0.1944
 2442SOL    HW1 7386   4.041   2.229   4.100  2.6113 -0.1248 -0.2217
 2442SOL    HW2 7387   4.001   2.184   3.961 -2.3786 -0.1361  1.0219
 2443SOL     OW 7388   0.756   3.090   2.930 -0.0318 -0.1293 -0.4275
 2443SOL    HW1 7389   0.674   3.079   2.882 -0.3432 -1.1483  0.3008
 2443SOL    HW2 7390   0.824   3.085   2.863 -0.5642  0.9371 -1.0641
 2444SOL     OW 7391   5.455   2.153   3.121  0.4594  0.3091  0.0784
 2444SOL    HW1 7392   5.507   2.148   3.201  0.7777  1.1603 -0.0730
 2444SOL    HW2 7393   5.390   2.221   3.138  2.7451  3.1049 -1.6258
 2445SOL     OW 7394   3.818   3.506   2.209  0.0694 -0.3237  1.0805
 2445SOL    HW1 7395   3.874   3.514   2.133  0.0572 -0.2927  1.0745
 2445SOL    HW2 7396   3.737   3.467   2.176 -0.9623  2.0580  0.5537
 2446SOL     OW 7397   2.418   1.515   2.710  0.2784 -0.2687  0.2756
 2446SOL    HW1 7398   2.477   1.501   2.784  1.5619 -1.8898 -0.9639
 2446SOL    HW2 7399   2.474   1.506   2.633 -1.3063 -0.2816 -0.9238
 2447SOL     OW 7400   0.799   1.340   3.572  0.2973 -0.2338 -0.0805
 2447SOL    HW1 7401   0.810   1.354   3.666 -0.3429  1.7049 -0.2439
 2447SOL    HW2 7402   0.705   1.345   3.557  0.4579  0.6625 -0.9461
 2448SOL     OW 7403   3.986   5.065   3.281  0.2750 -0.4564 -0.4238
 2448SOL    HW1 7404   3.972   4.981   3.324  0.4476 -0.0774  0.4084
 2448SOL    HW2 7405   3.899   5.105   3.277 -0.1031 -1.3583 -2.3630
 2449SOL     OW 7406   5.105   2.220   3.358 -0.3676  0.3051 -0.0795
 2449SOL    HW1 7407   5.190   2.186   3.385 -0.3383  0.1486 -0.3650
 2449SOL    HW2 7408   5.123   2.303   3.316 -0.4356  0.6614  0.5845
 2450SOL     OW 7409   3.203   2.112   1.094  0.5567 -0.0352  0.3569
 2450SOL    HW1 7410   3.244   2.184   1.045 -0.7646  1.8721  1.9290
 2450SOL    HW2 7411   3.262   2.098   1.168  0.9579 -0.8015 -0.0964
 2451SOL     OW 7412   0.733   2.764   3.793  0.4523  0.0122 -0.1307
 2451SOL    HW1 7413   0.798   2.756   3.863 -0.0404 -0.4844  0.2821
 2451SOL    HW2 7414   0.769   2.712   3.722  0.7062  0.0882 -0.0613
 2452SOL     OW 7415   0.025   1.252   1.619  0.6307  0.2313 -0.2201
 2452SOL    HW1 7416  -0.041   1.293   1.675  1.6584 -0.5921  1.6692
 2452SOL    HW2 7417  -0.026   1.204   1.553 -0.5997  1.9614 -0.6235
 2453SOL     OW 7418   1.449   1.657   2.977 -0.6861  0.9611 -0.7062
 2453SOL    HW1 7419   1.401   1.576   2.992  1.3119 -0.3786 -1.2183
 2453SOL    HW2 7420   1.446   1.703   3.061  0.2758 -0.8501  0.3886
 2454SOL     OW 7421   4.482   4.506   1.342  1.0468  0.1039  0.2635
 2454SOL    HW1 7422   4.533   4.429   1.315  0.3992 -0.9171  1.7932
 2454SOL    HW2 7423   4.545   4.563   1.385  1.6821  0.8263 -1.5233
 2455SOL     OW 7424   2.923   1.425   3.037 -0.2814  0.5725 -0.0372
 2455SOL    HW1 7425   2.976   1.500   3.066  0.7516  0.1695 -0.8174
 2455SOL    HW2 7426   2.986   1.365   2.998 -1.4787  0.7659 -2.4607
 2456SOL     OW 7427   4.940   0.159   1.226 -0.1662  0.1720 -0.7140
 2456SOL    HW1 7428   4.870   0.104   1.192 -0.1049  0.2445 -0.9591
 2456SOL    HW2 7429   4.993   0.101   1.280 -1.5611  0.5510  1.1463
 2457SOL     OW 7430   0.027   1.386   4.079 -0.2461  0.5742 -0.1665
 2457SOL    HW1 7431   0.069   1.358   3.998  0.4840  1.8192 -0.2475
 2457SOL    HW2 7432  -0.044   1.443   4.051 -0.2505  0.6770  0.0486
 2458SOL     OW 7433   3.657   3.362   4.137 -0.1855  0.2382  0.7035
 2458SOL    HW1 7434   3.622   3.295   4.079  0.5364 -0.9238  1.5592
 2458SOL    HW2 7435   3.752   3.359   4.122  0.1337 -0.7708  2.5737
 2459SOL     OW 7436   2.000   1.162   2.676  0.0076  0.4753  0.2691
 2459SOL    HW1 7437   2.071   1.223   2.657 -0.3218  0.4362 -1.1966
 2459SOL    HW2 7438   1.922   1.216   2.680 -0.1774  0.2551 -0.2728
 2460SOL     OW 7439   1.239   2.463   1.576 -0.3547 -0.4058 -0.0445
 2460SOL    HW1 7440   1.214   2.371   1.574 -1.0022 -0.2197 -1.5003
 2460SOL    HW2 7441   1.297   2.474   1.500 -2.4254  0.9318 -1.5342
 2461SOL     OW 7442   4.888   1.746   1.273  0.3809  0.3461 -0.4121
 2461SOL    HW1 7443   4.849   1.662   1.296  0.4612  0.7631  1.4080
 2461SOL    HW2 7444   4.818   1.810   1.289  1.3765  0.9689  1.6982
 2462SOL     OW 7445   0.939   4.873   2.820 -0.6494  0.0978  0.0372
 2462SOL    HW1 7446   0.916   4.961   2.849  0.2461 -0.2003  1.8094
 2462SOL    HW2 7447   0.959   4.882   2.727 -1.3108  1.6040  0.0241
 2463SOL     OW 7448   2.498   0.566   3.948 -0.0337  0.1110  0.1692
 2463SOL    HW1 7449   2.441   0.601   3.880 -1.2392 -0.9076  0.6107
 2463SOL    HW2 7450   2.460   0.481   3.969  0.2887  0.4198  2.1443
 2464SOL     OW 7451   4.051   0.332   2.313  0.0065  0.3222 -0.2661
 2464SOL    HW1 7452   3.982   0.266   2.305  0.6881 -0.7799  1.9832
 2464SOL    HW2 7453   4.082   0.346   2.223 -1.3193 -1.1476 -0.9976
 2465SOL     OW 7454   3.343   3.891   2.342 -0.3241 -0.1031  0.4719
 2465SOL    HW1 7455   3.425   3.931   2.371 -0.1443  0.4207 -0.6998
 2465SOL    HW2 7456   3.279   3.919   2.407 -0.2013  2.0986 -0.2516
 2466SOL     OW 7457   5.463   3.842   1.002  0.1279  0.5807 -0.1808
 2466SOL    HW1 7458   5.489   3.917   1.057  1.1191  0.7575 -0.8683
 2466SOL    HW2 7459   5.546   3.799   0.980 -0.5052 -1.5881  1.3683
 2467SOL     OW 7460   3.149   2.662   0.540 -0.2227  0.1065  0.2019
 2467SOL    HW1 7461   3.175   2.622   0.457 -0.7553 -2.0030  0.9681
 2467SOL    HW2 7462   3.225   2.649   0.597  0.0742  1.3841  0.1215
 2468SOL     OW 7463   4.857   2.351   1.422 -0.0418  0.6232  0.6711
 2468SOL    HW1 7464   4.913   2.309   1.488  1.3122  2.1060  0.5470
 2468SOL    HW2 7465   4.861   2.444   1.443 -1.3567  0.9146 -0.2187
 2469SOL     OW 7466   3.709   0.138   0.516 -0.4356 -0.3200 -0.1929
 2469SOL    HW1 7467   3.741   0.180   0.436 -0.3552 -2.0290 -1.1152
 2469SOL    HW2 7468   3.788   0.101   0.556 -0.6870 -0.9154 -0.2376
 2470SOL     OW 7469   5.348   2.896   3.757  0.0159 -0.5719 -0.0304
 2470SOL    HW1 7470   5.402   2.970   3.783 -2.5783  1.7873 -0.8131
 2470SOL    HW2 7471   5.331   2.848   3.839 -2.1014  2.5186  1.5085
 2471SOL     OW 7472   0.979   0.978   3.489 -0.2564 -0.5809  0.0877
 2471SOL    HW1 7473   0.925   1.025   3.425  1.7674 -0.1395 -1.4045
 2471SOL    HW2 7474   1.008   1.046   3.550  0.0226 -0.4904 -0.1440
 2472SOL     OW 7475   0.048   1.544   3.109 -0.3922 -0.1131 -0.5043
 2472SOL    HW1 7476   0.091   1.628   3.093  1.9002 -1.4144 -1.7336
 2472SOL    HW2 7477  -0.043   1.559   3.083 -0.4751  2.3963  0.8861
 2473SOL     OW 7478   3.912   0.932   0.074  0.4957  0.2199 -0.1988
 2473SOL    HW1 7479   3.932   0.838   0.074  0.5015  0.2077  0.9315
 2473SOL    HW2 7480   3.910   0.956   0.167  1.2929  1.5104 -0.4946
 2474SOL     OW 7481   1.774   5.134   0.813  0.0110 -0.0801  0.0027
 2474SOL    HW1 7482   1.692   5.087   0.799  0.8135 -1.3828 -0.5100
 2474SOL    HW2 7483   1.758   5.221   0.775 -0.9679 -0.4702 -0.5219
 2475SOL     OW 7484   3.663   1.400   3.542 -0.3175 -0.4554  0.3476
 2475SOL    HW1 7485   3.606   1.461   3.495 -0.2376 -0.1180  0.6753
 2475SOL    HW2 7486   3.605   1.333   3.576 -0.7618  0.6784  1.9547
 2476SOL     OW 7487   3.712   0.422   3.810 -0.3093 -1.1388 -0.0442
 2476SOL    HW1 7488   3.733   0.329   3.820  1.6454 -0.6948  0.4309
 2476SOL    HW2 7489   3.779   0.467   3.863 -2.3331  0.4806  1.2769
 2477SOL     OW 7490   0.688   3.504   0.394  0.1097  0.3914 -0.4629
 2477SOL    HW1 7491   0.750   3.574   0.373 -1.8404  1.7613 -1.9691
 2477SOL    HW2 7492   0.619   3.546   0.445  0.2095 -1.0479  0.9547
 2478SOL     OW 7493   0.057   3.347   4.016 -0.5021 -0.6467  0.0280
 2478SOL    HW1 7494   0.063   3.253   4.031 -3.3593 -1.0284 -0.6037
 2478SOL    HW2 7495  -0.024   3.374   4.059 -0.5880  1.2123 -1.1505
 2479SOL     OW 7496   4.633   0.155   4.006 -0.1825  0.3512  0.0577
 2479SOL    HW1 7497   4.607   0.240   3.970 -1.6647  0.6086  1.6258
 2479SOL    HW2 7498   4.683   0.113   3.935  0.9106  2.6518 -0.6284
 2480SOL     OW 7499   3.847   2.495   2.458  0.4678  0.1622  0.7941
 2480SOL    HW1 7500   3.824   2.506   2.550  2.5767 -0.5503  1.4683
 2480SOL    HW2 7501   3.828   2.580   2.418 -1.0486  0.2867  1.7297
 2481SOL     OW 7502   2.230   2.404   1.816 -0.0312  0.0555  0.4473
 2481SOL    HW1 7503   2.214   2.448   1.900  0.8341  0.4547  0.4174
 2481SOL    HW2 7504   2.192   2.464   1.751 -0.7426 -0.2763  0.5520
 2482SOL     OW 7505   0.447   4.451   1.381 -0.2303  0.5255  0.0644
 2482SOL    HW1 7506   0.518   4.396   1.414 -1.6896 -1.2882  0.3837
 2482SOL    HW2 7507   0.382   4.388   1.349 -1.2337  2.1365 -1.2107
 2483SOL     OW 7508   4.398   1.658   0.360  0.5383  0.2422 -0.1528
 2483SOL    HW1 7509   4.406   1.753   0.350 -0.8244  0.2735 -1.1211
 2483SOL    HW2 7510   4.385   1.644   0.454 -0.3492  1.1096 -0.1381
 2484SOL     OW 7511   0.332   0.047   3.326 -0.3184  0.1369 -0.2790
 2484SOL    HW1 7512   0.337  -0.044   3.297  0.3259 -0.3441  1.2315
 2484SOL    HW2 7513   0.403   0.091   3.279  0.1009 -0.4020 -0.1668
 2485SOL     OW 7514   2.296   1.207   3.897  0.3109 -0.2870 -0.6766
 2485SOL    HW1 7515   2.299   1.143   3.969 -2.9262 -0.4058 -0.4918
 2485SOL    HW2 7516   2.322   1.290   3.937 -1.7213 -0.2914  0.8189
 2486SOL     OW 7517   0.668   3.958   1.886 -0.0729  0.1189 -0.6025
 2486SOL    HW1 7518   0.633   3.925   1.969 -0.5694  0.0948 -0.8160
 2486SOL    HW2 7519   0.693   4.048   1.905 -1.1814  0.4627 -0.6904
 2487SOL     OW 7520   0.062   2.068   0.479  0.3794  0.1137  0.0791
 2487SOL    HW1 7521   0.092   2.024   0.400 -1.7933 -3.1107  0.8565
 2487SOL    HW2 7522   0.081   2.007   0.550 -0.5441  1.5195  1.6223
 2488SOL     OW 7523   3.089   3.153   1.280 -0.5358  0.0593  0.4817
 2488SOL    HW1 7524   3.012   3.122   1.232 -0.8327  1.7986 -0.2814
 2488SOL    HW2 7525   3.063   3.240   1.312  1.2232  0.8714 -0.1579
 2489SOL     OW 7526   0.287   1.106   1.528  0.1985 -0.0882  0.0284
 2489SOL    HW1 7527   0.233   1.127   1.604 -2.6497  0.0787 -1.8998
 2489SOL    HW2 7528   0.313   1.191   1.493  2.0560 -0.1692  1.0919
 2490SOL     OW 7529   1.701   3.847   4.459 -0.3436 -0.2040  0.0238
 2490SOL    HW1 7530   1.746   3.779   4.409  0.3063 -0.1722  0.5514
 2490SOL    HW2 7531   1.619   3.806   4.485 -0.2413 -0.5650 -0.2077
 2491SOL     OW 7532   4.231   2.756   1.263  0.5377 -0.0847  0.3747
 2491SOL    HW1 7533   4.317   2.724   1.239  0.7007  0.6257 -0.0261
 2491SOL    HW2 7534   4.248   2.841   1.305  0.1101 -0.4184  1.2347
 2492SOL     OW 7535   5.458   4.393   0.126  0.9302 -0.0067 -0.2208
 2492SOL    HW1 7536   5.390   4.336   0.090 -0.3568  0.7324  0.9699
 2492SOL    HW2 7537   5.491   4.346   0.202 -1.1780  1.3906  1.6656
 2493SOL     OW 7538   4.155   1.231   0.812 -0.8273  0.3758  0.6680
 2493SOL    HW1 7539   4.091   1.170   0.775  1.7921 -0.6003 -2.8442
 2493SOL    HW2 7540   4.240   1.191   0.793  0.9689  3.7824  0.7364
 2494SOL     OW 7541   1.421   1.046   0.853  0.0802 -0.1313 -0.0758
 2494SOL    HW1 7542   1.378   1.093   0.782  0.0635 -1.4698 -0.9936
 2494SOL    HW2 7543   1.349   1.019   0.910 -0.3408 -2.0728 -1.4291
 2495SOL     OW 7544   0.230   4.345   1.046 -0.2916  0.1733  0.0503
 2495SOL    HW1 7545   0.173   4.422   1.046  0.3853  0.7550  2.4712
 2495SOL    HW2 7546   0.176   4.276   1.007 -2.2612  0.9925  1.1720
 2496SOL     OW 7547   3.228   3.141   1.913  0.1881  0.3904  0.5767
 2496SOL    HW1 7548   3.152   3.111   1.865  0.4353 -0.3662  0.6517
 2496SOL    HW2 7549   3.203   3.228   1.945 -0.8203 -0.0391  1.0043
 2497SOL     OW 7550   2.666   0.155   3.506  0.0223  0.2060 -0.4425
 2497SOL    HW1 7551   2.754   0.162   3.543 -0.8209 -1.8505  2.2828
 2497SOL    HW2 7552   2.680   0.139   3.413  2.3384  5.1167 -1.2874
 2498SOL     OW 7553   2.905   0.109   1.043  0.3125 -0.3724  0.0372
 2498SOL    HW1 7554   2.839   0.110   0.973  0.5989  0.5966 -0.2312
 2498SOL    HW2 7555   2.867   0.163   1.112  0.4716 -0.4995  0.2254
 2499SOL     OW 7556   2.720   0.095   2.059  0.0345 -0.0139 -0.2947
 2499SOL    HW1 7557   2.739   0.144   1.978  0.1113 -0.8394 -0.7832
 2499SOL    HW2 7558   2.633   0.125   2.085  0.3280  0.8328 -0.2511
 2500SOL     OW 7559   1.746   4.082   1.742  0.1669  0.1374  0.4854
 2500SOL    HW1 7560   1.750   4.165   1.791  1.0134  0.3800  0.0114
 2500SOL    HW2 7561   1.658   4.048   1.762 -0.2445  1.2011  0.5925
 2501SOL     OW 7562   4.234   4.937   1.184  0.1087 -0.2146 -0.0152
 2501SOL    HW1 7563   4.252   4.851   1.145  2.7012 -0.3389  1.2620
 2501SOL    HW2 7564   4.163   4.921   1.246  0.8483 -1.5399  0.5131
 2502SOL     OW 7565   4.697   0.911   0.089 -0.2415 -0.5162 -0.7383
 2502SOL    HW1 7566   4.682   0.872   0.175  0.5315  1.0670  0.1598
 2502SOL    HW2 7567   4.618   0.962   0.072  0.7835  1.5768  0.4474
 2503SOL     OW 7568   1.411   4.171   4.361 -0.5067 -0.1298  0.2833
 2503SOL    HW1 7569   1.439   4.234   4.294  2.0171 -0.8947  0.5476
 2503SOL    HW2 7570   1.355   4.222   4.419 -1.1178  1.0510 -1.2715
 2504SOL     OW 7571   1.360   4.531   1.691 -0.6057 -0.2116 -0.3252
 2504SOL    HW1 7572   1.380   4.598   1.756  0.0644 -0.2307 -0.5055
 2504SOL    HW2 7573   1.418   4.550   1.618  0.2667 -1.5411 -0.0063
 2505SOL     OW 7574   1.665   3.086   0.433  0.0386  0.6802 -0.9229
 2505SOL    HW1 7575   1.671   3.041   0.349  0.6591  1.4455 -1.3014
 2505SOL    HW2 7576   1.722   3.036   0.492 -1.9550 -1.0797 -0.3557
 2506SOL     OW 7577   3.177   3.994   0.058  0.0792  0.0432 -0.0002
 2506SOL    HW1 7578   3.222   4.010  -0.025 -0.9868 -0.1327 -0.6405
 2506SOL    HW2 7579   3.096   4.046   0.051  1.0544  1.9692  1.9507
 2507SOL     OW 7580   2.422   3.465   2.565  1.0533  0.4223  0.2354
 2507SOL    HW1 7581   2.454   3.410   2.637 -1.1187  1.4387  2.0937
 2507SOL    HW2 7582   2.475   3.544   2.570  2.5297 -0.4331 -0.8977
 2508SOL     OW 7583   1.877   0.120   2.657  0.8410 -0.0289 -0.0095
 2508SOL    HW1 7584   1.898   0.083   2.571 -0.6152  0.8906 -0.8262
 2508SOL    HW2 7585   1.869   0.045   2.715  2.1164 -0.6494 -0.6170
 2509SOL     OW 7586   3.257   3.258   3.862 -0.1606  0.3461  0.5229
 2509SOL    HW1 7587   3.210   3.256   3.778 -0.0271 -1.9144  0.4436
 2509SOL    HW2 7588   3.250   3.168   3.895 -0.7620  1.3258  3.2730
 2510SOL     OW 7589   4.867   3.425   2.400 -0.0198  0.2012 -0.7984
 2510SOL    HW1 7590   4.868   3.401   2.492 -3.1264 -1.0314 -0.9805
 2510SOL    HW2 7591   4.945   3.383   2.363  2.4953  2.4536  1.5086
 2511SOL     OW 7592   1.883   1.362   3.513  0.2697 -0.6899 -0.1998
 2511SOL    HW1 7593   1.922   1.341   3.597  1.2599 -0.8809 -0.6941
 2511SOL    HW2 7594   1.898   1.456   3.502  0.3070 -0.7021 -0.2515
 2512SOL     OW 7595   3.202   1.750   3.566  0.4026  0.2781 -0.2251
 2512SOL    HW1 7596   3.211   1.799   3.647 -1.1638  0.6673 -0.2490
 2512SOL    HW2 7597   3.239   1.664   3.585 -0.9448 -0.0104  1.2814
 2513SOL     OW 7598   3.462   3.027   2.867  0.9149  0.0463  0.8232
 2513SOL    HW1 7599   3.454   3.114   2.828  1.3370 -0.4903 -0.5320
 2513SOL    HW2 7600   3.390   3.022   2.930 -1.2123  0.1853 -1.4404
 2514SOL     OW 7601   1.720   4.643   2.764  0.5832 -0.1826 -0.4500
 2514SOL    HW1 7602   1.650   4.708   2.754 -1.1979 -1.9964 -0.4071
 2514SOL    HW2 7603   1.779   4.682   2.829 -2.3956 -0.0812  2.4958
 2515SOL     OW 7604   1.706   4.590   1.568 -0.2256  0.4267 -0.3707
 2515SOL    HW1 7605   1.749   4.675   1.552 -0.1978  1.4515  3.9144
 2515SOL    HW2 7606   1.644   4.608   1.639 -0.5253 -3.0845  0.4113
 2516SOL     OW 7607   3.173   1.167   1.458 -0.0282 -0.1081  0.7313
 2516SOL    HW1 7608   3.132   1.204   1.380  1.1002  0.3046  0.3229
 2516SOL    HW2 7609   3.149   1.074   1.456  2.1273 -0.7339 -1.5876
 2517SOL     OW 7610   2.869   4.293   1.178  0.2022 -0.0201 -0.3960
 2517SOL    HW1 7611   2.826   4.303   1.093  0.0784  1.1962 -0.2177
 2517SOL    HW2 7612   2.880   4.383   1.210  2.3816 -0.3077 -0.1754
 2518SOL     OW 7613   4.876   0.336   0.473  0.1776  0.1551 -0.3545
 2518SOL    HW1 7614   4.908   0.283   0.546  0.6945  0.9471  0.0015
 2518SOL    HW2 7615   4.824   0.405   0.514 -0.4461 -0.0308 -0.8116
 2519SOL     OW 7616   3.781   4.556   2.817 -0.5411  0.2878 -0.2942
 2519SOL    HW1 7617   3.785   4.639   2.864 -0.8012  0.0015  0.2377
 2519SOL    HW2 7618   3.700   4.560   2.767  0.1688  0.9659 -1.4454
 2520SOL     OW 7619   4.964   4.266   3.016  0.6757 -0.4650 -0.6460
 2520SOL    HW1 7620   4.880   4.289   2.977 -0.9915  0.7003  3.1430
 2520SOL    HW2 7621   4.953   4.175   3.043 -0.7628  0.5467  2.6345
 2521SOL     OW 7622   4.019   2.515   0.935  0.2298 -0.6335  0.2012
 2521SOL    HW1 7623   4.101   2.551   0.967 -0.8593  3.0370 -0.6735
 2521SOL    HW2 7624   4.020   2.530   0.841 -1.8440  0.5948  0.3025
 2522SOL     OW 7625   1.504   0.372   1.528 -0.2287 -0.0707  0.1233
 2522SOL    HW1 7626   1.415   0.407   1.533 -0.2871 -0.0050 -0.9723
 2522SOL    HW2 7627   1.554   0.427   1.588 -0.6845  0.7303 -0.2062
 2523SOL     OW 7628   5.359   0.703   2.573  0.0187 -0.1372 -0.1818
 2523SOL    HW1 7629   5.293   0.754   2.526 -0.8237  0.8725  1.9316
 2523SOL    HW2 7630   5.427   0.766   2.596 -0.1918 -0.3048  0.9783
 2524SOL     OW 7631   1.615   2.521   3.972  0.3169  0.6089  0.1895
 2524SOL    HW1 7632   1.698   2.474   3.958 -0.6034 -0.8616 -0.5219
 2524SOL    HW2 7633   1.630   2.571   4.052  0.5650 -2.9438  2.6289
 2525SOL     OW 7634   4.466   1.271   4.267  0.0197  0.3861  0.4059
 2525SOL    HW1 7635   4.501   1.192   4.308 -0.2053  0.6413  1.1074
 2525SOL    HW2 7636   4.486   1.342   4.328 -0.0107  0.8354 -0.0923
 2526SOL     OW 7637   2.323   2.826   2.259  0.3788  0.1231  0.6859
 2526SOL    HW1 7638   2.270   2.895   2.298  0.0505  0.4294 -0.2738
 2526SOL    HW2 7639   2.364   2.868   2.183  0.1667 -0.7388  0.0859
 2527SOL     OW 7640   4.002   4.441   1.415 -0.3385 -0.0755 -0.2116
 2527SOL    HW1 7641   3.954   4.450   1.333 -1.0790  1.1218  0.3138
 2527SOL    HW2 7642   3.938   4.406   1.477  0.2220 -0.9938 -0.1349
 2528SOL     OW 7643   1.928   4.093   2.789  0.1330 -0.4341 -0.0570
 2528SOL    HW1 7644   1.923   4.184   2.760 -2.9662 -0.5346 -0.1881
 2528SOL    HW2 7645   1.890   4.043   2.717  0.8218 -1.7481  0.4507
 2529SOL     OW 7646   2.064   3.156   0.372 -0.0690 -0.0685  0.3827
 2529SOL    HW1 7647   2.099   3.173   0.284  0.0051  1.5737  0.6999
 2529SOL    HW2 7648   1.982   3.205   0.375 -0.9123 -1.4476  0.6944
 2530SOL     OW 7649   1.882   2.395   4.416 -0.2239  0.0398  0.2813
 2530SOL    HW1 7650   1.819   2.445   4.468  0.3961  0.6185  0.4983
 2530SOL    HW2 7651   1.968   2.428   4.445  0.1725 -0.6839 -0.0515
 2531SOL     OW 7652   4.219   1.546   4.062 -0.1218 -0.0741 -0.1738
 2531SOL    HW1 7653   4.265   1.465   4.041 -1.6030 -1.3154  1.1346
 2531SOL    HW2 7654   4.281   1.615   4.040  1.3662 -1.5698 -0.8762
 2532SOL     OW 7655   4.306   5.033   2.234 -0.2076 -0.4135 -0.7347
 2532SOL    HW1 7656   4.379   5.003   2.180  0.3558 -0.5447  0.0830
 2532SOL    HW2 7657   4.334   5.119   2.267 -0.4880 -0.3977 -0.5332
 2533SOL     OW 7658   2.087   3.470   0.321 -0.0398  0.6349  0.9377
 2533SOL    HW1 7659   2.079   3.518   0.404  1.6543 -0.9609  2.1108
 2533SOL    HW2 7660   2.003   3.423   0.313 -0.9231  2.1616  0.7790
 2534SOL     OW 7661   2.677   3.850   3.993 -0.6089  0.2234 -0.8313
 2534SOL    HW1 7662   2.749   3.878   3.937 -0.1527 -1.0671 -0.9125
 2534SOL    HW2 7663   2.710   3.858   4.082 -0.7889  0.7528 -0.8050
 2535SOL     OW 7664   4.096   1.166   2.008 -0.2760 -0.5946  0.1200
 2535SOL    HW1 7665   4.114   1.240   1.950 -0.4015  0.0589  0.8842
 2535SOL    HW2 7666   4.043   1.205   2.079  0.3839 -1.2331  0.9795
 2536SOL     OW 7667   0.423   4.896   0.381  0.1706  0.3677  0.2951
 2536SOL    HW1 7668   0.480   4.899   0.458  2.0723 -1.2771 -0.9255
 2536SOL    HW2 7669   0.483   4.876   0.309 -1.8364 -0.3661 -1.2518
 2537SOL     OW 7670   5.281   0.275   0.293 -0.3024 -0.1667 -0.5896
 2537SOL    HW1 7671   5.356   0.217   0.279  0.5245  0.6785  0.1656
 2537SOL    HW2 7672   5.206   0.217   0.300  0.4573 -1.1259 -0.2083
 2538SOL     OW 7673   2.661   0.968   2.686 -0.2619  0.5822  0.3214
 2538SOL    HW1 7674   2.757   0.962   2.688 -0.3594 -1.8610  1.7045
 2538SOL    HW2 7675   2.641   1.000   2.598  1.7964  0.2347 -0.3343
 2539SOL     OW 7676   1.361   2.282   0.005  0.3294 -0.4365 -0.1013
 2539SOL    HW1 7677   1.276   2.325   0.016 -0.3956 -2.1538  1.6542
 2539SOL    HW2 7678   1.392   2.267   0.094  1.0195 -2.5111 -0.6355
 2540SOL     OW 7679   2.220   2.075   3.209  0.7126 -0.2395 -0.4098
 2540SOL    HW1 7680   2.225   2.160   3.254 -0.0375  0.5185 -1.6975
 2540SOL    HW2 7681   2.127   2.051   3.215  0.7536 -0.5136 -0.8638
 2541SOL     OW 7682   3.638   2.294   2.441  0.2256  0.4167 -0.6980
 2541SOL    HW1 7683   3.698   2.230   2.480 -0.9675  1.8606  4.2123
 2541SOL    HW2 7684   3.687   2.376   2.441 -0.4757  0.8462 -0.2782
 2542SOL     OW 7685   0.306   0.631   2.078  0.0566 -0.3749 -0.3015
 2542SOL    HW1 7686   0.396   0.647   2.104 -0.0769  0.0698 -0.1075
 2542SOL    HW2 7687   0.309   0.549   2.029  0.6178 -0.1858 -0.5846
 2543SOL     OW 7688   3.039   1.137   0.290 -0.6100  0.0749 -0.2325
 2543SOL    HW1 7689   2.944   1.149   0.300 -0.4498  0.6608  0.8256
 2543SOL    HW2 7690   3.073   1.226   0.280 -0.0094  0.0338  1.2222
 2544SOL     OW 7691   0.111   2.565   1.873  0.0135  0.8300  0.1347
 2544SOL    HW1 7692   0.025   2.603   1.895  0.0687  1.6927 -1.0386
 2544SOL    HW2 7693   0.090   2.482   1.830 -0.2779  1.3996 -0.8447
 2545SOL     OW 7694   3.693   4.639   3.317  0.7627  0.2513 -0.4064
 2545SOL    HW1 7695   3.754   4.580   3.273 -0.6440 -1.1692 -0.5343
 2545SOL    HW2 7696   3.720   4.637   3.408  1.3905  0.2703 -0.5845
 2546SOL     OW 7697   4.565   2.478   3.517  0.0251  0.3533  0.0031
 2546SOL    HW1 7698   4.522   2.437   3.442  0.4916 -1.6951  0.7598
 2546SOL    HW2 7699   4.508   2.457   3.591  1.2138 -0.5813  0.6926
 2547SOL     OW 7700   2.951   1.535   3.812  0.0703 -0.2116  0.4616
 2547SOL    HW1 7701   2.913   1.493   3.889  1.5676  1.2986  2.1339
 2547SOL    HW2 7702   3.038   1.497   3.804  0.5791  0.8641  0.6136
 2548SOL     OW 7703   3.043   0.852   3.636 -0.2819 -0.5448  0.1457
 2548SOL    HW1 7704   2.972   0.899   3.679 -0.6167  0.7816 -1.7177
 2548SOL    HW2 7705   3.122   0.880   3.683 -0.6135  1.0341 -0.1613
 2549SOL     OW 7706   2.190   1.792   2.446 -0.8406  0.2114  0.2341
 2549SOL    HW1 7707   2.280   1.821   2.428 -1.0269  0.4660 -0.3140
 2549SOL    HW2 7708   2.164   1.841   2.524 -1.1680  1.5765 -0.7012
 2550SOL     OW 7709   4.746   1.610   2.549  0.1337  0.3287 -0.1274
 2550SOL    HW1 7710   4.766   1.580   2.638  1.5964  0.3262 -0.4387
 2550SOL    HW2 7711   4.754   1.705   2.553  0.8857  0.2820 -0.4086
 2551SOL     OW 7712   1.684   2.670   0.909 -0.1320 -0.1762 -0.0011
 2551SOL    HW1 7713   1.662   2.594   0.963 -1.2765 -0.2334 -0.5263
 2551SOL    HW2 7714   1.673   2.640   0.819 -3.4899  1.3408 -0.2559
 2552SOL     OW 7715   1.533   4.366   1.424  0.4314  0.5005 -0.3030
 2552SOL    HW1 7716   1.561   4.439   1.368  0.2426 -0.9114 -2.3732
 2552SOL    HW2 7717   1.438   4.366   1.416  0.4187  0.1724 -0.1307
 2553SOL     OW 7718   1.701   0.976   3.173  0.2369 -0.0455 -0.6856
 2553SOL    HW1 7719   1.741   1.061   3.156 -0.9265  0.9941  1.2862
 2553SOL    HW2 7720   1.634   0.967   3.105  0.8411  0.2815 -1.3331
 2554SOL     OW 7721   2.153   2.975   4.439 -0.5524 -0.6436  0.0034
 2554SOL    HW1 7722   2.231   2.952   4.489 -1.5676  0.0955  2.0185
 2554SOL    HW2 7723   2.107   2.892   4.427  1.3358 -1.4208 -2.8094
 2555SOL     OW 7724   0.109   5.039   0.872  0.2864  0.7571 -0.2593
 2555SOL    HW1 7725   0.173   5.108   0.857 -0.4029  1.1543 -1.5045
 2555SOL    HW2 7726   0.038   5.082   0.919  0.0105  0.8243 -0.7317
 2556SOL     OW 7727   2.948   0.952   2.646  0.1581  0.2213 -0.3735
 2556SOL    HW1 7728   3.043   0.942   2.645  0.0785 -0.7632  0.4859
 2556SOL    HW2 7729   2.924   0.962   2.553  0.8946 -1.6646 -0.7992
 2557SOL     OW 7730   1.255   2.246   1.295  0.0135 -0.0415 -0.4806
 2557SOL    HW1 7731   1.207   2.192   1.232  1.5548  0.1460 -1.8650
 2557SOL    HW2 7732   1.201   2.243   1.374 -1.5598 -0.9644 -1.5271
 2558SOL     OW 7733   4.221   3.724   1.017  0.4597 -0.0456  0.0475
 2558SOL    HW1 7734   4.175   3.644   0.995 -2.1608  1.3055  0.2265
 2558SOL    HW2 7735   4.258   3.754   0.934  1.6071 -1.4673  0.0105
 2559SOL     OW 7736   2.280   1.066   0.907 -0.3003 -0.0661 -0.4267
 2559SOL    HW1 7737   2.370   1.065   0.940 -0.3577 -1.0831 -0.2425
 2559SOL    HW2 7738   2.247   1.153   0.928  0.5572  0.2251 -0.2517
 2560SOL     OW 7739   5.249   3.337   1.789 -0.2124 -0.2694  0.5366
 2560SOL    HW1 7740   5.162   3.326   1.749 -0.3333  2.3803 -0.1093
 2560SOL    HW2 7741   5.279   3.423   1.759  2.7806 -1.1926  0.5504
 2561SOL     OW 7742   4.305   0.550   3.714 -0.2124 -0.1653 -0.6293
 2561SOL    HW1 7743   4.387   0.535   3.666 -0.4030  0.6340 -1.2337
 2561SOL    HW2 7744   4.274   0.635   3.681 -0.8528 -0.0655  0.2054
 2562SOL     OW 7745   1.731   0.802   3.405  0.4193  0.1293  0.1514
 2562SOL    HW1 7746   1.638   0.804   3.425  0.6178 -1.9630  1.4965
 2562SOL    HW2 7747   1.741   0.864   3.332 -1.9636  0.5343  0.1035
 2563SOL     OW 7748   4.822   0.493   1.075 -0.3080  0.2332  0.2216
 2563SOL    HW1 7749   4.822   0.512   1.169 -0.4200  0.4657  0.1756
 2563SOL    HW2 7750   4.750   0.432   1.063 -0.7136  0.7169  0.1853
 2564SOL     OW 7751   0.781   0.099   3.911 -0.4916  0.0760  0.1311
 2564SOL    HW1 7752   0.692   0.109   3.944 -1.0780 -0.7528 -1.1163
 2564SOL    HW2 7753   0.783   0.012   3.871 -0.0805  1.2211 -2.6004
 2565SOL     OW 7754   4.030   1.763   1.348  0.2407 -0.1895 -0.3099
 2565SOL    HW1 7755   4.024   1.706   1.425 -2.1934  0.7671  0.3113
 2565SOL    HW2 7756   4.113   1.810   1.359 -0.9363  1.4252  2.9185
 2566SOL     OW 7757   2.662   1.490   3.138  0.0931 -0.1342  0.0132
 2566SOL    HW1 7758   2.750   1.461   3.116 -0.3637 -1.9373  0.3830
 2566SOL    HW2 7759   2.663   1.585   3.123  2.0822 -0.1104  0.0550
 2567SOL     OW 7760   3.824   3.821   2.318  0.3945 -0.3183  0.1569
 2567SOL    HW1 7761   3.788   3.735   2.300  0.1836 -1.0463  3.4993
 2567SOL    HW2 7762   3.829   3.863   2.232 -1.8476 -2.7019 -1.2802
 2568SOL     OW 7763   2.001   2.101   0.657 -0.1606 -0.2474 -0.1682
 2568SOL    HW1 7764   2.074   2.078   0.714  0.4612 -0.1943 -0.9211
 2568SOL    HW2 7765   1.941   2.027   0.664 -0.7785  0.3816  1.6304
 2569SOL     OW 7766   3.768   3.881   2.874  0.0509  0.1660  0.4168
 2569SOL    HW1 7767   3.727   3.949   2.928  0.1839  0.8701 -0.3476
 2569SOL    HW2 7768   3.827   3.836   2.933  0.5553  1.2397  0.7591
 2570SOL     OW 7769   1.334   0.746   3.678  0.6876  0.0049 -0.0988
 2570SOL    HW1 7770   1.370   0.658   3.681 -0.1299 -0.3757 -0.9629
 2570SOL    HW2 7771   1.255   0.742   3.731  0.9028  0.3518  0.2573
 2571SOL     OW 7772   0.259   1.956   0.860 -0.8010  0.2072 -0.0930
 2571SOL    HW1 7773   0.215   2.040   0.844 -2.0064 -0.9611 -4.0728
 2571SOL    HW2 7774   0.190   1.890   0.852  0.0695 -1.2905  3.1683
 2572SOL     OW 7775   2.579   1.361   0.959 -0.4131  0.3108 -0.4085
 2572SOL    HW1 7776   2.576   1.300   0.885 -0.5965 -1.7069  1.1655
 2572SOL    HW2 7777   2.487   1.385   0.973 -0.2192  2.1201 -1.8727
 2573SOL     OW 7778   0.319   4.653   2.324  0.3259  0.2643 -0.3377
 2573SOL    HW1 7779   0.345   4.562   2.315 -1.8696 -0.7111  1.9078
 2573SOL    HW2 7780   0.373   4.687   2.396 -0.3605  0.0535  0.2860
 2574SOL     OW 7781   4.023   2.889   1.474 -0.0743  0.0352  0.2482
 2574SOL    HW1 7782   3.940   2.841   1.476  0.2038 -0.4345  0.7825
 2574SOL    HW2 7783   3.997   2.981   1.472 -0.6184 -0.0672  1.4819
 2575SOL     OW 7784   3.192   3.427   2.782  0.3060  0.4504  0.3874
 2575SOL    HW1 7785   3.181   3.517   2.750  0.3368 -0.3465 -2.1025
 2575SOL    HW2 7786   3.103   3.398   2.801  0.1356  0.5528 -0.2239
 2576SOL     OW 7787   3.961   4.936   0.174  1.0513 -0.5152 -0.3230
 2576SOL    HW1 7788   3.909   4.965   0.099  0.7836 -0.1176  0.0121
 2576SOL    HW2 7789   3.913   4.860   0.208  0.2894  0.2637  0.4054
 2577SOL     OW 7790   3.656   1.409   2.147 -0.2297 -0.2104  0.7466
 2577SOL    HW1 7791   3.613   1.448   2.071  0.9209  2.8855  1.5620
 2577SOL    HW2 7792   3.626   1.460   2.221  1.5192 -0.7557  1.9003
 2578SOL     OW 7793   1.607   0.690   0.453 -0.3920 -0.5185  0.1009
 2578SOL    HW1 7794   1.600   0.682   0.358  0.1639 -0.7661  0.0801
 2578SOL    HW2 7795   1.700   0.708   0.469 -0.6822  0.7547  0.5099
 2579SOL     OW 7796   2.906   3.675   0.311 -0.4660  0.0659  0.7225
 2579SOL    HW1 7797   2.852   3.752   0.329  0.8010  1.5124 -1.2352
 2579SOL    HW2 7798   2.982   3.685   0.368 -0.7963 -0.3157  1.2351
 2580SOL     OW 7799   0.175   2.376   0.260 -0.0837  0.5061 -0.2469
 2580SOL    HW1 7800   0.158   2.402   0.169 -1.1819  1.9516  0.3281
 2580SOL    HW2 7801   0.212   2.289   0.253 -1.1614  0.1324 -2.0431
 2581SOL     OW 7802   1.884   3.559   3.399 -0.5552  0.7631 -0.7025
 2581SOL    HW1 7803   1.929   3.550   3.483 -1.7513  0.7675 -0.0465
 2581SOL    HW2 7804   1.914   3.483   3.348 -2.4542 -1.2620  0.9862
 2582SOL     OW 7805   2.690   3.229   0.397 -0.4599  0.0905 -0.0200
 2582SOL    HW1 7806   2.784   3.223   0.380 -0.5655 -0.9935 -0.2976
 2582SOL    HW2 7807   2.682   3.303   0.458  0.6185 -0.0917  0.3800
 2583SOL     OW 7808   3.798   0.762   0.880 -0.0373 -0.0276  0.1819
 2583SOL    HW1 7809   3.889   0.732   0.877 -0.2646 -0.7517 -3.1800
 2583SOL    HW2 7810   3.751   0.689   0.921  0.6655 -0.2569  0.6141
 2584SOL     OW 7811   0.656   1.465   2.161 -0.4892  0.2689 -0.3374
 2584SOL    HW1 7812   0.707   1.400   2.111  0.4281 -0.1315  1.0678
 2584SOL    HW2 7813   0.690   1.549   2.131  0.0352  0.0326 -0.4184
 2585SOL     OW 7814   1.467   0.238   1.959  0.3601  0.4126 -0.4791
 2585SOL    HW1 7815   1.434   0.198   1.878 -1.6517 -1.5026  1.1629
 2585SOL    HW2 7816   1.525   0.172   1.996 -0.0785  0.5280  0.4432
 2586SOL     OW 7817   0.636   2.082   3.860 -0.1502 -0.1184  0.1456
 2586SOL    HW1 7818   0.623   2.044   3.773 -1.1999 -0.3057  0.3660
 2586SOL    HW2 7819   0.612   2.174   3.849  0.4515  0.0342  0.0715
 2587SOL     OW 7820   1.425   3.200   2.686 -0.6467  0.6616  0.1850
 2587SOL    HW1 7821   1.467   3.285   2.672 -1.1773  0.8567 -0.2409
 2587SOL    HW2 7822   1.486   3.137   2.646  0.2846  0.7197  1.4734
 2588SOL     OW 7823   2.907   3.901   1.441 -0.0894  0.1553  0.2869
 2588SOL    HW1 7824   2.828   3.909   1.494  1.5835  0.9055  2.8554
 2588SOL    HW2 7825   2.900   3.972   1.377 -1.9406 -0.4746 -0.2749
 2589SOL     OW 7826   4.996   2.271   4.102 -0.0441  0.6051 -0.4206
 2589SOL    HW1 7827   4.994   2.366   4.101 -1.8281  0.6046 -0.5241
 2589SOL    HW2 7828   4.905   2.245   4.084  0.2429 -1.0900  0.3826
 2590SOL     OW 7829   0.127   1.109   3.347  0.5402  0.3300  0.3181
 2590SOL    HW1 7830   0.135   1.165   3.425 -0.2268  3.2610 -1.5318
 2590SOL    HW2 7831   0.196   1.140   3.288  0.0434 -0.6610 -0.8141
 2591SOL     OW 7832   0.478   0.209   0.802  0.2196 -0.2320  0.6643
 2591SOL    HW1 7833   0.553   0.192   0.859  0.3220 -0.8959  0.3280
 2591SOL    HW2 7834   0.464   0.128   0.754 -1.4567 -0.5336  1.5737
 2592SOL     OW 7835   2.280   2.921   2.706 -0.3767  0.1551 -0.0838
 2592SOL    HW1 7836   2.295   3.011   2.677 -0.2670 -0.3335 -1.6743
 2592SOL    HW2 7837   2.367   2.881   2.709 -0.5057 -0.1589 -0.3534
 2593SOL     OW 7838   0.386   3.458   0.517 -0.2645  0.0383  0.2251
 2593SOL    HW1 7839   0.421   3.375   0.485 -1.2985 -0.9205  1.5015
 2593SOL    HW2 7840   0.291   3.448   0.509 -0.4255  0.8376  1.0218
 2594SOL     OW 7841   1.516   0.792   1.948 -0.4768  0.0804  0.2337
 2594SOL    HW1 7842   1.470   0.772   1.867 -0.5602 -0.0190  0.3058
 2594SOL    HW2 7843   1.560   0.710   1.971  0.0038  0.2630 -0.0096
 2595SOL     OW 7844   1.910   3.636   4.384  0.2254  0.4523  0.4224
 2595SOL    HW1 7845   1.838   3.580   4.355  0.1167  0.3971  0.7969
 2595SOL    HW2 7846   1.964   3.580   4.439 -0.7226  1.1062  2.0753
 2596SOL     OW 7847   2.534   1.004   3.561  0.6838 -0.2526  0.1750
 2596SOL    HW1 7848   2.495   1.015   3.474  0.6962 -0.5600  0.1267
 2596SOL    HW2 7849   2.546   1.093   3.593 -2.3985 -0.0878  1.2244
 2597SOL     OW 7850   2.405   1.911   4.124 -0.3888 -1.0270  0.1196
 2597SOL    HW1 7851   2.498   1.900   4.103 -0.5766 -0.9592 -0.8025
 2597SOL    HW2 7852   2.366   1.825   4.108 -0.7671 -0.6473 -1.1319
 2598SOL     OW 7853   2.757   4.625   1.175  0.2971  0.3321  0.2433
 2598SOL    HW1 7854   2.684   4.594   1.229  0.1095  1.7142  0.8249
 2598SOL    HW2 7855   2.717   4.682   1.110  0.8016  0.7322  0.2737
 2599SOL     OW 7856   0.402   1.017   0.586  0.4039  0.2002  0.5553
 2599SOL    HW1 7857   0.389   0.961   0.509  0.4538  0.4878  0.3384
 2599SOL    HW2 7858   0.497   1.019   0.599  0.3403 -0.9172  1.4188
 2600SOL     OW 7859   2.064   5.008   2.310 -0.1645 -0.1329  0.4711
 2600SOL    HW1 7860   2.020   5.028   2.227  0.9673 -1.3576 -0.4599
 2600SOL    HW2 7861   2.056   4.913   2.319  0.4110 -0.1051  1.3877
 2601SOL     OW 7862   0.048   2.971   3.264 -0.6028  0.0045  0.0312
 2601SOL    HW1 7863   0.015   2.962   3.353  3.4858 -1.0765  1.6397
 2601SOL    HW2 7864   0.045   2.882   3.228  2.1517 -0.5550  0.9674
 2602SOL     OW 7865   4.170   1.249   1.424  0.0893 -0.3631 -0.2076
 2602SOL    HW1 7866   4.088   1.278   1.384 -0.5437  0.5132  1.6060
 2602SOL    HW2 7867   4.238   1.302   1.383 -0.8272  2.4015  1.5957
 2603SOL     OW 7868   3.552   3.647   1.604 -0.2124 -0.3080  0.6939
 2603SOL    HW1 7869   3.610   3.672   1.532  1.1715  0.6350  2.0777
 2603SOL    HW2 7870   3.464   3.653   1.567  0.5178 -1.5048 -1.3921
 2604SOL     OW 7871   1.446   4.736   0.676  0.1073 -0.3746  0.1111
 2604SOL    HW1 7872   1.461   4.681   0.753 -2.0520 -1.0177  0.1376
 2604SOL    HW2 7873   1.403   4.678   0.613 -1.2135  0.9618 -0.2861
 2605SOL     OW 7874   2.401   0.291   2.539 -0.2025  0.2138  0.8957
 2605SOL    HW1 7875   2.423   0.380   2.511  1.4286 -0.4540 -0.0863
 2605SOL    HW2 7876   2.352   0.302   2.621  0.7859  1.9705  1.2818
 2606SOL     OW 7877   2.857   2.086   1.212  0.2820 -0.3590 -0.7198
 2606SOL    HW1 7878   2.873   2.173   1.176  1.7588  0.0300  0.7469
 2606SOL    HW2 7879   2.850   2.029   1.135  0.3694  0.8766 -1.6750
 2607SOL     OW 7880   3.113   1.656   2.455  0.2082  0.1477  0.1935
 2607SOL    HW1 7881   3.209   1.652   2.459  0.2274  0.9445  0.6280
 2607SOL    HW2 7882   3.090   1.734   2.506 -0.7364 -0.6267  0.9968
 2608SOL     OW 7883   2.707   2.108   0.827  0.3122  0.7764 -0.4956
 2608SOL    HW1 7884   2.798   2.078   0.837  0.2744  0.6887 -0.4111
 2608SOL    HW2 7885   2.710   2.201   0.851  0.6883  1.2070 -2.0835
 2609SOL     OW 7886   0.478   5.135   3.115 -0.1118  0.0892  0.4726
 2609SOL    HW1 7887   0.414   5.101   3.053  0.6072 -0.6188  0.0912
 2609SOL    HW2 7888   0.509   5.217   3.075 -1.3696  0.8912  1.0732
 2610SOL     OW 7889   1.735   3.523   0.115 -0.0548 -0.1476  0.3247
 2610SOL    HW1 7890   1.814   3.562   0.077 -0.5140  0.7418  0.2678
 2610SOL    HW2 7891   1.678   3.507   0.040  0.0930 -0.8553  0.3584
 2611SOL     OW 7892   4.683   2.472   2.070  0.1517 -0.1861  0.5183
 2611SOL    HW1 7893   4.746   2.535   2.036  0.3586  0.2247  1.6400
 2611SOL    HW2 7894   4.718   2.387   2.044 -0.5944  0.1451 -1.8117
 2612SOL     OW 7895   1.409   1.501   0.195  0.3592  0.1595 -0.6019
 2612SOL    HW1 7896   1.351   1.434   0.160  0.6665  0.2207 -1.2463
 2612SOL    HW2 7897   1.426   1.559   0.121  3.5934 -1.4554 -1.3153
 2613SOL     OW 7898   2.488   0.579   2.520 -0.1081  0.0142 -0.2903
 2613SOL    HW1 7899   2.447   0.628   2.449 -1.0040  0.2429  0.3598
 2613SOL    HW2 7900   2.474   0.633   2.598  1.5236  0.1348 -0.0474
 2614SOL     OW 7901   0.320   0.334   2.975  0.4101 -0.2121 -0.4917
 2614SOL    HW1 7902   0.242   0.325   3.030  0.7625 -1.9330 -0.2133
 2614SOL    HW2 7903   0.392   0.341   3.037  0.6485 -0.4670 -0.7391
 2615SOL     OW 7904   1.891   3.012   4.206  0.4109 -0.1488 -0.0977
 2615SOL    HW1 7905   1.974   3.038   4.167  1.4879 -0.7081  1.6772
 2615SOL    HW2 7906   1.841   3.093   4.213  0.6052  0.1253 -1.5722
 2616SOL     OW 7907   3.910   1.293   4.412  0.5466  0.0127  0.2977
 2616SOL    HW1 7908   3.910   1.310   4.507 -0.5445  3.3420 -0.1914
 2616SOL    HW2 7909   3.989   1.336   4.380  1.2887 -1.7073 -0.2951
 2617SOL     OW 7910   3.229   2.521   3.855  0.3511 -0.1576 -0.1283
 2617SOL    HW1 7911   3.193   2.515   3.943 -0.1978 -0.7810 -0.3884
 2617SOL    HW2 7912   3.311   2.569   3.866 -0.7537  1.6601  0.3981
 2618SOL     OW 7913   5.425   0.047   0.260  0.1104 -0.0728  0.0606
 2618SOL    HW1 7914   5.449   0.032   0.351 -0.1923 -0.1836  0.1217
 2618SOL    HW2 7915   5.497   0.100   0.225  0.4524 -0.4137  0.2416
 2619SOL     OW 7916   2.383   1.991   4.386 -0.3323 -0.7085 -0.1621
 2619SOL    HW1 7917   2.385   1.950   4.299  0.2871  0.6971 -0.8501
 2619SOL    HW2 7918   2.291   2.014   4.400 -0.6047 -1.8467  0.0225
 2620SOL     OW 7919   4.184   4.852   4.296 -0.3139 -0.6332  0.4812
 2620SOL    HW1 7920   4.157   4.899   4.217  0.8179 -0.2633  0.2874
 2620SOL    HW2 7921   4.104   4.810   4.328 -0.8668 -0.4877 -0.6525
 2621SOL     OW 7922   0.124   1.652   1.624 -0.1528 -0.1483 -0.0814
 2621SOL    HW1 7923   0.103   1.712   1.553  0.1689 -0.6878 -0.6515
 2621SOL    HW2 7924   0.148   1.708   1.698 -0.6322  0.4204 -0.3575
 2622SOL     OW 7925   3.308   3.477   1.297  0.5453 -0.6265  0.1168
 2622SOL    HW1 7926   3.294   3.508   1.386  0.8896 -1.5313  0.5051
 2622SOL    HW2 7927   3.323   3.556   1.246 -1.3392  0.0394  0.5265
 2623SOL     OW 7928   0.783   2.955   0.265 -0.3111 -0.0675  0.1198
 2623SOL    HW1 7929   0.859   3.009   0.285  0.4147 -0.9370 -0.2347
 2623SOL    HW2 7930   0.710   3.017   0.262  0.2330  0.6655  1.2857
 2624SOL     OW 7931   4.596   1.036   4.334 -0.4081 -0.4303 -0.1544
 2624SOL    HW1 7932   4.569   1.053   4.424  0.0022 -0.5547 -0.0059
 2624SOL    HW2 7933   4.532   0.972   4.301 -0.6077 -0.3197  0.0202
 2625SOL     OW 7934   1.649   0.914   0.665  0.1622  0.4821  0.6224
 2625SOL    HW1 7935   1.577   0.972   0.690  0.1129  0.9439 -0.5690
 2625SOL    HW2 7936   1.649   0.914   0.570 -0.7270 -2.5517  0.5190
 2626SOL     OW 7937   1.140   2.067   1.104 -0.3082 -0.7782  0.6412
 2626SOL    HW1 7938   1.211   2.107   1.054  0.1631 -1.3518  0.8469
 2626SOL    HW2 7939   1.077   2.040   1.038 -1.5379  1.9096  0.5524
 2627SOL     OW 7940   3.974   4.789   3.351  0.4210 -0.1886  0.1953
 2627SOL    HW1 7941   4.066   4.761   3.347  0.8469  1.0943  0.2888
 2627SOL    HW2 7942   3.931   4.739   3.283  1.2314 -0.7036  0.0448
 2628SOL     OW 7943   4.843   3.394   3.072 -0.0272 -0.5336  0.3461
 2628SOL    HW1 7944   4.775   3.336   3.039 -0.2904 -0.1841  0.2612
 2628SOL    HW2 7945   4.794   3.468   3.109  0.3211  0.0023 -0.2481
 2629SOL     OW 7946   4.111   3.554   0.316  0.6253 -0.4574 -0.5682
 2629SOL    HW1 7947   4.107   3.646   0.289 -1.6749 -0.4066 -0.2261
 2629SOL    HW2 7948   4.069   3.507   0.244 -0.4213 -0.9516  0.3491
 2630SOL     OW 7949   3.828   4.387   0.030 -0.3308  0.0227 -0.3433
 2630SOL    HW1 7950   3.880   4.332   0.089 -1.5149 -1.4098 -0.5896
 2630SOL    HW2 7951   3.892   4.447  -0.009  0.8366 -0.5228  0.6659
 2631SOL     OW 7952   3.476   2.507   3.205 -0.8118 -0.1991 -0.2273
 2631SOL    HW1 7953   3.516   2.483   3.289  0.5335  1.5984 -0.2913
 2631SOL    HW2 7954   3.447   2.424   3.167  2.2987 -1.5647  0.1261
 2632SOL     OW 7955   4.637   3.526   2.619 -0.4451 -0.4156  0.5985
 2632SOL    HW1 7956   4.620   3.616   2.591  0.8908 -0.4298 -0.3670
 2632SOL    HW2 7957   4.622   3.473   2.541  0.5763 -0.7998  0.6497
 2633SOL     OW 7958   1.629   0.443   1.272 -0.4355 -0.2651  0.4666
 2633SOL    HW1 7959   1.593   0.361   1.238  1.1773 -0.7717 -0.1056
 2633SOL    HW2 7960   1.719   0.445   1.240 -0.6235  2.0747 -0.0950
 2634SOL     OW 7961   2.383   0.768   3.264  0.4933  0.3855 -0.1956
 2634SOL    HW1 7962   2.321   0.695   3.268  0.6244  0.3053  0.4263
 2634SOL    HW2 7963   2.332   0.844   3.290  0.9609  0.1109  1.6786
 2635SOL     OW 7964   3.795   0.190   0.229  0.2058  0.9013  0.2867
 2635SOL    HW1 7965   3.771   0.216   0.140  1.4875  0.3449 -0.2484
 2635SOL    HW2 7966   3.836   0.104   0.219 -0.9701  0.1494  1.6177
 2636SOL     OW 7967   2.345   3.572   4.465  0.1758 -0.3887 -0.2472
 2636SOL    HW1 7968   2.257   3.548   4.496 -0.0657  1.5680  0.7815
 2636SOL    HW2 7969   2.335   3.661   4.432  1.7952 -0.1060 -0.0550
 2637SOL     OW 7970   1.224   0.111   0.751 -0.6235 -0.2588  0.4837
 2637SOL    HW1 7971   1.254   0.153   0.670 -0.0097 -1.8214 -0.1279
 2637SOL    HW2 7972   1.246   0.174   0.820  0.8394  0.1625 -0.3352
 2638SOL     OW 7973   1.868   0.191   3.551 -0.3548 -0.2388 -0.4029
 2638SOL    HW1 7974   1.839   0.206   3.461 -0.0346 -0.3578 -0.5271
 2638SOL    HW2 7975   1.930   0.119   3.544 -0.3308 -0.2497 -0.0844
 2639SOL     OW 7976   2.397   3.872   3.763  0.0855  0.5451 -0.0760
 2639SOL    HW1 7977   2.426   3.896   3.675 -2.5744 -0.5941 -1.3807
 2639SOL    HW2 7978   2.328   3.935   3.783 -0.5930 -0.3302  0.3935
 2640SOL     OW 7979   0.735   2.313   1.576  0.1576 -0.2150  0.7253
 2640SOL    HW1 7980   0.750   2.250   1.646  0.2289  0.5340  1.4058
 2640SOL    HW2 7981   0.650   2.290   1.539  1.1457 -2.0765 -0.5388
 2641SOL     OW 7982   3.898   3.274   3.775  0.5234  0.0934  0.3815
 2641SOL    HW1 7983   3.973   3.244   3.723  2.5135  0.6411  2.7584
 2641SOL    HW2 7984   3.853   3.336   3.717  1.7071 -0.4546 -1.2230
 2642SOL     OW 7985   1.596   2.611   3.297 -0.0251 -0.0929 -0.2287
 2642SOL    HW1 7986   1.571   2.651   3.380 -1.7782 -0.8935 -0.3424
 2642SOL    HW2 7987   1.532   2.643   3.234  0.4669 -0.5748 -0.9940
 2643SOL     OW 7988   0.534   2.646   0.543  0.1529 -0.3202 -0.1880
 2643SOL    HW1 7989   0.448   2.613   0.517  0.6230 -0.3794 -1.7337
 2643SOL    HW2 7990   0.582   2.657   0.461  1.1240  1.1293  0.5297
 2644SOL     OW 7991   0.667   2.499   1.895 -0.2133 -0.3663  0.1515
 2644SOL    HW1 7992   0.602   2.434   1.871  0.1004 -1.4860  2.1588
 2644SOL    HW2 7993   0.706   2.526   1.812 -0.7349 -2.3411 -0.7860
 2645SOL     OW 7994   2.731   3.798   0.503 -0.5505  0.4812  0.1379
 2645SOL    HW1 7995   2.699   3.850   0.576 -1.5769  0.6016 -0.3930
 2645SOL    HW2 7996   2.660   3.738   0.482 -0.9803  1.6013 -1.8825
 2646SOL     OW 7997   5.413   3.100   1.924 -0.0963  0.0752  0.8198
 2646SOL    HW1 7998   5.334   3.118   1.873 -1.9126  0.1063  3.4860
 2646SOL    HW2 7999   5.474   3.170   1.899  0.0450 -1.1308 -2.8935
 2647SOL     OW 8000   0.639   4.118   2.176  0.1035 -0.2410  0.2014
 2647SOL    HW1 8001   0.598   4.032   2.186 -0.8527  0.1717  0.0126
 2647SOL    HW2 8002   0.591   4.159   2.104  1.9025 -0.3113 -1.1002
 2648SOL     OW 8003   1.328   3.238   2.153  0.7895  0.5341 -0.7141
 2648SOL    HW1 8004   1.323   3.208   2.244 -0.3851  0.1026 -0.9136
 2648SOL    HW2 8005   1.364   3.164   2.105 -1.4180 -0.3615 -1.0828
 2649SOL     OW 8006   1.003   1.569   2.853 -0.1332 -0.3507  0.3281
 2649SOL    HW1 8007   0.917   1.597   2.822  0.1257  1.3116  1.0010
 2649SOL    HW2 8008   1.053   1.553   2.773 -0.3740  0.9820 -0.1175
 2650SOL     OW 8009   4.363   1.711   0.777  0.2416  0.5406 -0.2791
 2650SOL    HW1 8010   4.322   1.680   0.696 -1.1391  1.0801  0.1908
 2650SOL    HW2 8011   4.370   1.806   0.765 -1.4478  0.8423  0.8502
 2651SOL     OW 8012   4.150   1.628   2.417  0.3010 -0.2399  0.0624
 2651SOL    HW1 8013   4.199   1.705   2.388  0.7461 -0.6287 -0.2477
 2651SOL    HW2 8014   4.148   1.571   2.340  0.1036 -0.6003  0.3312
 2652SOL     OW 8015   2.635   1.180   2.199 -0.2757 -0.1266  0.0673
 2652SOL    HW1 8016   2.687   1.260   2.186  0.8546 -0.5213  1.8638
 2652SOL    HW2 8017   2.637   1.136   2.114  1.4435  0.4084 -0.2151
 2653SOL     OW 8018   2.460   0.474   1.571  0.0206  0.2911  0.1122
 2653SOL    HW1 8019   2.487   0.396   1.619 -0.4873  0.0933  0.0781
 2653SOL    HW2 8020   2.501   0.465   1.485  0.5452  0.4138  0.3458
 2654SOL     OW 8021   3.713   3.868   0.602  0.3201  0.7319 -0.5931
 2654SOL    HW1 8022   3.786   3.848   0.543  0.6690 -0.0839  0.0923
 2654SOL    HW2 8023   3.674   3.783   0.622 -0.1565  1.0545 -0.1166
 2655SOL     OW 8024   3.650   1.850   3.636  0.1164 -0.0166 -0.0993
 2655SOL    HW1 8025   3.587   1.844   3.565  1.1450 -0.1349 -1.0331
 2655SOL    HW2 8026   3.698   1.932   3.619  0.3543 -0.0329  0.4690
 2656SOL     OW 8027   2.880   4.743   4.043  0.2032 -0.0451  0.1328
 2656SOL    HW1 8028   2.898   4.832   4.072  0.4159 -0.2801  0.7249
 2656SOL    HW2 8029   2.798   4.750   3.994 -0.2659  0.3263  0.9542
 2657SOL     OW 8030   0.480   4.372   3.157  0.6169  0.1743 -0.2029
 2657SOL    HW1 8031   0.566   4.348   3.191  0.2081  0.6040  1.2098
 2657SOL    HW2 8032   0.429   4.394   3.235 -0.4188  1.0646 -1.1068
 2658SOL     OW 8033   0.775   2.488   2.582 -0.0328 -0.1638  0.3929
 2658SOL    HW1 8034   0.773   2.437   2.663 -1.7049  0.6991  0.9455
 2658SOL    HW2 8035   0.844   2.553   2.596 -1.2449  0.8939  1.7559
 2659SOL     OW 8036   2.617   3.393   0.885  0.0059 -0.5293 -0.0657
 2659SOL    HW1 8037   2.540   3.401   0.941 -0.7620  0.1565 -1.1722
 2659SOL    HW2 8038   2.619   3.301   0.860  1.1773 -1.1788  2.1562
 2660SOL     OW 8039   1.976   1.854   2.298 -0.3445 -0.3152  0.0441
 2660SOL    HW1 8040   2.042   1.879   2.233  0.1893 -2.2858 -0.2298
 2660SOL    HW2 8041   2.020   1.789   2.353 -0.9788  0.8628  2.0511
 2661SOL     OW 8042   0.495   1.065   2.196 -0.3454 -0.2881 -0.7112
 2661SOL    HW1 8043   0.583   1.079   2.161  0.4933  0.3642  1.4709
 2661SOL    HW2 8044   0.500   0.980   2.240  0.2928  1.1669  2.2737
 2662SOL     OW 8045   2.958   4.655   2.347 -1.0426 -0.0276  0.1500
 2662SOL    HW1 8046   3.002   4.724   2.396  1.1240 -1.4066  0.2888
 2662SOL    HW2 8047   2.903   4.611   2.411  1.1405 -1.2967  1.2851
 2663SOL     OW 8048   0.869   0.829   3.220  0.0819 -0.1319 -0.2853
 2663SOL    HW1 8049   0.924   0.775   3.277  0.0476  0.2800  0.1478
 2663SOL    HW2 8050   0.802   0.770   3.188 -2.2381  0.3776  3.1348
 2664SOL     OW 8051   5.367   3.822   1.444 -0.2215 -0.4476  0.0631
 2664SOL    HW1 8052   5.324   3.803   1.527 -1.5372 -2.7378 -1.0173
 2664SOL    HW2 8053   5.402   3.910   1.453 -0.5509 -0.5404  2.9206
 2665SOL     OW 8054   2.603   0.782   4.074  0.5964  0.0377 -0.2400
 2665SOL    HW1 8055   2.574   0.692   4.068  1.5089 -0.2893  0.0757
 2665SOL    HW2 8056   2.570   0.824   3.995  0.1152 -0.5553 -0.3570
 2666SOL     OW 8057   1.262   4.911   0.831 -0.7118 -0.4329  0.0037
 2666SOL    HW1 8058   1.178   4.932   0.790 -1.5233 -1.2731  1.1849
 2666SOL    HW2 8059   1.311   4.865   0.763 -0.7743  0.9671 -1.0379
 2667SOL     OW 8060   4.932   5.003   2.384 -0.0927  0.1140  0.2749
 2667SOL    HW1 8061   4.917   4.910   2.400  3.0304 -0.6447 -0.5468
 2667SOL    HW2 8062   4.855   5.032   2.335 -0.9175 -2.1426  0.1189
 2668SOL     OW 8063   0.500   4.500   2.894 -0.4583 -0.3886 -0.6930
 2668SOL    HW1 8064   0.582   4.542   2.919  1.1444 -2.9785 -1.2367
 2668SOL    HW2 8065   0.470   4.457   2.974 -2.1822  1.6947 -0.0937
 2669SOL     OW 8066   4.265   2.569   4.342 -0.3145 -0.3551 -0.4512
 2669SOL    HW1 8067   4.223   2.654   4.330 -0.9413 -0.5981 -0.0199
 2669SOL    HW2 8068   4.243   2.543   4.431 -0.9940 -1.4176 -0.8945
 2670SOL     OW 8069   1.239   4.338   1.941 -0.1734  0.4499  0.4463
 2670SOL    HW1 8070   1.331   4.362   1.949 -0.2198  0.6429  0.4021
 2670SOL    HW2 8071   1.226   4.323   1.847  0.8691 -3.7648  0.7727
 2671SOL     OW 8072   3.740   1.609   3.734 -0.8568 -0.0045  0.1707
 2671SOL    HW1 8073   3.692   1.684   3.699  1.3865  1.4117 -0.0703
 2671SOL    HW2 8074   3.694   1.533   3.699 -2.1818  1.2809 -1.0278
 2672SOL     OW 8075   3.203   2.550   3.184 -0.1567 -0.4219 -0.3172
 2672SOL    HW1 8076   3.253   2.614   3.234 -1.1616 -1.3864  2.0819
 2672SOL    HW2 8077   3.269   2.502   3.134  1.1287 -0.3282  1.1908
 2673SOL     OW 8078   2.138   4.509   0.143 -0.5233 -0.2414 -0.1387
 2673SOL    HW1 8079   2.048   4.503   0.174 -0.2796 -1.0517  0.4439
 2673SOL    HW2 8080   2.130   4.527   0.050 -1.2678  3.1272  0.4704
 2674SOL     OW 8081   3.411   2.093   4.257  0.6110 -0.7324 -0.4251
 2674SOL    HW1 8082   3.426   2.000   4.243  1.8611 -0.6032 -0.0697
 2674SOL    HW2 8083   3.480   2.120   4.318 -1.4700 -0.2026  1.8685
 2675SOL     OW 8084   3.495   2.419   2.779 -0.6592 -0.2119 -0.0681
 2675SOL    HW1 8085   3.461   2.355   2.717  0.9950 -0.3178 -0.8977
 2675SOL    HW2 8086   3.555   2.369   2.834 -0.5622  0.3151  0.3092
 2676SOL     OW 8087   0.632   2.666   4.307 -0.4659 -0.1095  0.1607
 2676SOL    HW1 8088   0.693   2.593   4.308 -0.9239 -0.5506 -1.2580
 2676SOL    HW2 8089   0.607   2.679   4.399  0.6109 -0.8781  0.5705
 2677SOL     OW 8090   1.471   1.979   4.161  0.8807 -0.0194  0.3966
 2677SOL    HW1 8091   1.400   2.004   4.102  1.3469 -2.1547 -1.1909
 2677SOL    HW2 8092   1.524   2.058   4.171 -1.9142  1.7982  2.0639
 2678SOL     OW 8093   1.847   0.184   0.614  0.1295  0.6082  0.1012
 2678SOL    HW1 8094   1.804   0.268   0.631 -0.6203  0.2907 -0.1578
 2678SOL    HW2 8095   1.774   0.124   0.596  0.3338 -0.9812  3.7594
 2679SOL     OW 8096   3.454   3.428   3.845 -0.0893 -0.4799 -0.0440
 2679SOL    HW1 8097   3.378   3.377   3.873 -0.4494 -1.3107 -2.3087
 2679SOL    HW2 8098   3.526   3.364   3.841 -0.1983 -0.5511 -1.5072
 2680SOL     OW 8099   4.539   0.085   1.751 -0.0549 -0.0532  0.5995
 2680SOL    HW1 8100   4.468   0.022   1.737 -0.0012 -0.3448  1.5409
 2680SOL    HW2 8101   4.605   0.061   1.686 -0.6468 -0.0296 -0.0228
 2681SOL     OW 8102   4.290   0.634   3.108 -0.3662 -0.4370 -0.9397
 2681SOL    HW1 8103   4.370   0.643   3.160 -0.4059 -2.3071 -0.4859
 2681SOL    HW2 8104   4.232   0.703   3.142  0.1591 -0.6447  0.4687
 2682SOL     OW 8105   0.992   0.071   2.012 -0.5062 -0.5662 -0.5761
 2682SOL    HW1 8106   1.050   0.002   2.045 -0.6132 -0.4171 -0.0668
 2682SOL    HW2 8107   1.016   0.080   1.920 -1.3063 -2.1243 -0.9871
 2683SOL     OW 8108   1.040   0.735   3.798  0.1371 -0.4910 -0.5813
 2683SOL    HW1 8109   1.054   0.828   3.820  1.2476 -1.1597  1.8497
 2683SOL    HW2 8110   0.952   0.732   3.761 -1.3884  1.0690  2.5767
 2684SOL     OW 8111   4.603   0.227   2.897 -0.1621 -0.0035 -0.0428
 2684SOL    HW1 8112   4.575   0.318   2.899  2.3037  0.8214  0.4834
 2684SOL    HW2 8113   4.598   0.198   2.988  0.7569  0.2121  0.0891
 2685SOL     OW 8114   0.106   0.993   1.991  0.5793 -0.2811  0.5736
 2685SOL    HW1 8115   0.154   0.975   1.911  1.7364  0.3103  1.1079
 2685SOL    HW2 8116   0.110   1.089   2.000  0.8648 -0.3683  1.5582
 2686SOL     OW 8117   4.699   1.253   4.113  0.4407  0.3680  0.0684
 2686SOL    HW1 8118   4.699   1.172   4.063  1.6189  0.9083 -0.8371
 2686SOL    HW2 8119   4.634   1.238   4.182 -1.1396 -0.4554 -1.5030
 2687SOL     OW 8120   0.156   0.701   0.292  0.1940  0.3561 -0.3839
 2687SOL    HW1 8121   0.109   0.648   0.228  0.7131 -1.1026  0.4023
 2687SOL    HW2 8122   0.196   0.638   0.352  1.4020  1.6156  0.2106
 2688SOL     OW 8123   5.368   1.857   0.699  0.3296 -0.1393 -0.1210
 2688SOL    HW1 8124   5.312   1.782   0.719  2.0739 -1.2014  1.1126
 2688SOL    HW2 8125   5.358   1.915   0.775  0.7909 -0.2973  0.0694
 2689SOL     OW 8126   4.016   0.869   1.777  0.1724 -0.0452  0.2680
 2689SOL    HW1 8127   4.037   0.776   1.767  2.1333  0.4479 -0.6066
 2689SOL    HW2 8128   4.006   0.881   1.872 -1.0536 -1.3092  0.3293
 2690SOL     OW 8129   0.095   2.794   4.126 -0.1828  0.5207 -0.0503
 2690SOL    HW1 8130   0.143   2.862   4.078 -1.7224  1.7250  0.0267
 2690SOL    HW2 8131   0.021   2.772   4.069 -0.3776 -0.2188  0.4737
 2691SOL     OW 8132   0.133   4.491   2.581 -0.0993  0.2750 -0.6482
 2691SOL    HW1 8133   0.042   4.477   2.604  0.1715  0.3739  0.5775
 2691SOL    HW2 8134   0.163   4.408   2.545 -0.5974  0.1726 -0.8268
 2692SOL     OW 8135   3.783   3.735   3.799  0.2174  0.0730 -0.2274
 2692SOL    HW1 8136   3.698   3.774   3.823 -0.2816  0.1265 -1.9602
 2692SOL    HW2 8137   3.817   3.701   3.881 -1.6935 -0.3422  0.4580
 2693SOL     OW 8138   0.537   1.003   1.212 -0.3926  0.4141  0.1124
 2693SOL    HW1 8139   0.515   1.091   1.244 -0.8958 -0.1247  1.2792
 2693SOL    HW2 8140   0.453   0.964   1.190 -0.0340  1.0169 -2.6517
 2694SOL     OW 8141   0.606   2.520   3.023  0.1965  0.2017 -0.1612
 2694SOL    HW1 8142   0.521   2.555   2.995  1.2415  1.8444 -1.4862
 2694SOL    HW2 8143   0.628   2.457   2.954  0.2490  0.0956 -0.0460
 2695SOL     OW 8144   4.096   4.700   3.910 -0.6179  0.2293  0.0147
 2695SOL    HW1 8145   4.182   4.659   3.901 -1.4614 -1.0499 -3.6951
 2695SOL    HW2 8146   4.096   4.773   3.848 -2.0694  0.4905  0.2656
 2696SOL     OW 8147   4.113   2.427   2.844 -0.0499 -0.3522 -0.6772
 2696SOL    HW1 8148   4.097   2.345   2.891 -0.1140  0.2364  0.3580
 2696SOL    HW2 8149   4.183   2.470   2.894  0.3501 -0.0179 -1.5180
 2697SOL     OW 8150   4.770   4.038   3.086 -0.3759 -0.0103  0.1185
 2697SOL    HW1 8151   4.698   3.997   3.038  0.3951 -0.3878 -0.7321
 2697SOL    HW2 8152   4.727   4.105   3.140 -1.4958 -0.9857  0.4954
 2698SOL     OW 8153   3.785   0.899   3.679  0.3906  0.2383 -0.3789
 2698SOL    HW1 8154   3.795   0.882   3.585  1.7378 -1.3130 -0.0033
 2698SOL    HW2 8155   3.701   0.858   3.701  0.2583  0.2542 -0.8331
 2699SOL     OW 8156   1.325   0.403   4.351  0.3145 -0.2799  0.5834
 2699SOL    HW1 8157   1.350   0.470   4.414 -0.6324 -0.8302  1.5706
 2699SOL    HW2 8158   1.330   0.447   4.266  1.7179  0.4390  1.0094
 2700SOL     OW 8159   0.307   0.292   3.658 -0.0386 -0.3859  0.3497
 2700SOL    HW1 8160   0.243   0.357   3.689 -1.8669 -2.6720  1.6467
 2700SOL    HW2 8161   0.264   0.248   3.585 -0.7975 -3.1395  2.3336
 2701SOL     OW 8162   1.107   4.907   4.033  0.1319  0.1107 -0.3144
 2701SOL    HW1 8163   1.144   4.978   3.980  0.3952 -0.3407 -0.7352
 2701SOL    HW2 8164   1.022   4.888   3.992  0.3491 -0.2593 -0.5949
 2702SOL     OW 8165   2.297   4.144   2.144  0.1498  0.3044 -0.8584
 2702SOL    HW1 8166   2.207   4.133   2.116 -0.0872  0.1953 -0.0955
 2702SOL    HW2 8167   2.343   4.067   2.109  0.0705  0.6470 -1.7172
 2703SOL     OW 8168   3.049   1.797   1.477  0.4951  0.8467 -0.0175
 2703SOL    HW1 8169   2.955   1.791   1.495  0.4532  1.1798 -0.1067
 2703SOL    HW2 8170   3.064   1.891   1.462  0.9786  0.8956  0.7433
 2704SOL     OW 8171   5.137   1.211   4.087  0.1069  0.1934  0.2158
 2704SOL    HW1 8172   5.197   1.137   4.081 -0.0941  0.0706 -0.4405
 2704SOL    HW2 8173   5.148   1.245   4.175 -0.3598 -1.0853  0.7812
 2705SOL     OW 8174   4.409   1.958   0.682 -0.3238  0.7474 -1.2129
 2705SOL    HW1 8175   4.466   2.035   0.683 -0.6036  0.9903 -2.4734
 2705SOL    HW2 8176   4.344   1.977   0.614 -0.9874 -0.1918 -0.8660
 2706SOL     OW 8177   4.861   5.131   4.152  0.5093  0.0436  0.4326
 2706SOL    HW1 8178   4.944   5.086   4.167 -0.1037 -1.6950 -1.0297
 2706SOL    HW2 8179   4.867   5.162   4.061 -0.1777  0.4921  0.5288
 2707SOL     OW 8180   2.546   1.935   3.748 -0.3453 -0.4485  0.2719
 2707SOL    HW1 8181   2.464   1.892   3.772 -0.1544 -0.6655  0.5383
 2707SOL    HW2 8182   2.612   1.866   3.752 -0.0790 -0.1857  0.4474
 2708SOL     OW 8183   5.230   3.353   2.826 -0.3174 -0.0274 -0.1087
 2708SOL    HW1 8184   5.139   3.355   2.798 -0.3818  1.2806  0.1214
 2708SOL    HW2 8185   5.253   3.445   2.839  1.0287 -0.3352 -0.1375
 2709SOL     OW 8186   4.576   1.777   3.398  0.1065  0.4022 -0.4750
 2709SOL    HW1 8187   4.524   1.827   3.335 -0.1862  1.2293  0.3883
 2709SOL    HW2 8188   4.554   1.816   3.483  0.7243 -0.4782  0.1049
 2710SOL     OW 8189   0.385   3.368   2.137 -0.5448 -0.5827  0.5404
 2710SOL    HW1 8190   0.357   3.456   2.109 -0.3716 -0.5102  0.5930
 2710SOL    HW2 8191   0.307   3.314   2.127  0.0844 -1.0797 -2.2790
 2711SOL     OW 8192   4.172   1.315   3.724  0.0737  0.5046  0.5508
 2711SOL    HW1 8193   4.172   1.235   3.777 -2.1368 -1.3014 -1.9409
 2711SOL    HW2 8194   4.115   1.375   3.771 -1.0883 -0.7066  0.7343
 2712SOL     OW 8195   4.259   0.926   1.631 -0.2474  0.5282 -0.0127
 2712SOL    HW1 8196   4.180   0.924   1.685 -0.1756  0.5582  0.0926
 2712SOL    HW2 8197   4.319   0.864   1.673 -1.2558 -1.7184 -1.6981
 2713SOL     OW 8198   5.081   3.115   4.065 -0.2751  0.2392  0.1885
 2713SOL    HW1 8199   5.072   3.078   3.977  0.4763  1.9744 -0.6642
 2713SOL    HW2 8200   5.114   3.043   4.118  0.4189 -0.5236 -1.2209
 2714SOL     OW 8201   2.861   3.351   1.757  0.1184 -0.4678  0.4442
 2714SOL    HW1 8202   2.813   3.281   1.800 -0.9403 -2.2055 -3.1689
 2714SOL    HW2 8203   2.935   3.308   1.714 -1.5524  0.0294 -3.3893
 2715SOL     OW 8204   4.160   1.252   0.333 -0.6559 -0.3017  0.5877
 2715SOL    HW1 8205   4.170   1.312   0.259  1.6034 -1.1649  0.1167
 2715SOL    HW2 8206   4.176   1.307   0.410 -0.1358  0.0377  0.2485
 2716SOL     OW 8207   4.907   4.507   0.235  0.2154 -0.2897  0.5947
 2716SOL    HW1 8208   4.921   4.576   0.301 -0.1602  0.9573 -0.5847
 2716SOL    HW2 8209   4.994   4.491   0.199 -0.0315  1.4900 -0.9395
 2717SOL     OW 8210   0.347   3.401   4.291 -0.2665  0.3365 -0.4407
 2717SOL    HW1 8211   0.350   3.451   4.373  1.4623 -1.6080  0.7962
 2717SOL    HW2 8212   0.273   3.342   4.301  0.8811 -1.0268  0.5293
 2718SOL     OW 8213   0.537   5.093   0.178  0.1631 -0.4195 -0.0423
 2718SOL    HW1 8214   0.601   5.067   0.243  1.2957 -1.9208 -1.6603
 2718SOL    HW2 8215   0.589   5.131   0.107 -0.9258  0.1738 -0.5520
 2719SOL     OW 8216   3.850   2.306   1.767 -0.5498 -0.0212 -0.0954
 2719SOL    HW1 8217   3.888   2.312   1.854 -0.2256  0.6053 -0.2727
 2719SOL    HW2 8218   3.775   2.247   1.777 -0.5853  0.1368  0.6283
 2720SOL     OW 8219   1.150   3.035   3.614 -0.2030 -0.0654 -0.4587
 2720SOL    HW1 8220   1.118   3.123   3.594  0.4256  0.3824  0.4303
 2720SOL    HW2 8221   1.114   3.016   3.701  1.1069  0.0577  0.1401
 2721SOL     OW 8222   1.592   1.030   1.498  0.0832  0.6220  0.0262
 2721SOL    HW1 8223   1.641   0.990   1.570 -1.0003 -0.0640  0.4034
 2721SOL    HW2 8224   1.511   1.062   1.539 -0.9154 -0.4846 -1.0043
 2722SOL     OW 8225   1.258   2.856   1.803 -0.7221 -0.2949 -0.1617
 2722SOL    HW1 8226   1.326   2.793   1.828 -1.1001 -1.2339 -1.3971
 2722SOL    HW2 8227   1.306   2.935   1.779 -0.0977 -0.7205 -0.3441
 2723SOL     OW 8228   0.182   0.051   2.670  0.6251 -0.4658  0.4745
 2723SOL    HW1 8229   0.201   0.128   2.616 -0.0084 -0.5883  0.0619
 2723SOL    HW2 8230   0.126   0.084   2.740  0.1261 -0.5977  0.1408
 2724SOL     OW 8231   2.372   1.442   1.216 -0.4421 -0.1777  0.2168
 2724SOL    HW1 8232   2.341   1.523   1.257  0.2910  0.4687 -0.4929
 2724SOL    HW2 8233   2.441   1.410   1.275 -0.5767 -0.1673  0.3797
 2725SOL     OW 8234   3.590   3.028   2.457 -0.0037 -0.5914 -0.2195
 2725SOL    HW1 8235   3.648   3.021   2.533  0.9673 -0.3330 -0.9132
 2725SOL    HW2 8236   3.558   2.939   2.443  1.2289 -1.0041 -0.5715
 2726SOL     OW 8237   2.148   1.988   3.654  0.3337 -0.5135  0.1717
 2726SOL    HW1 8238   2.058   1.957   3.666  0.3103 -0.4727  0.0977
 2726SOL    HW2 8239   2.199   1.936   3.717 -0.0150  0.8082  1.5968
 2727SOL     OW 8240   3.858   3.155   1.503  0.7355 -0.8207 -0.0649
 2727SOL    HW1 8241   3.868   3.250   1.500 -1.5653 -0.5264 -0.0269
 2727SOL    HW2 8242   3.886   3.130   1.591  2.3801 -0.3526 -0.4275
 2728SOL     OW 8243   5.085   0.104   1.998  0.2140 -0.3123  0.2916
 2728SOL    HW1 8244   5.130   0.173   2.048  0.1979  0.4989 -0.7752
 2728SOL    HW2 8245   5.068   0.144   1.912  0.7898 -1.8481 -0.5878
 2729SOL     OW 8246   3.552   3.113   3.227 -0.3966 -0.8544  0.2324
 2729SOL    HW1 8247   3.626   3.056   3.251  0.3349 -0.5833 -1.2655
 2729SOL    HW2 8248   3.498   3.059   3.169  0.1720 -0.1387 -0.9997
 2730SOL     OW 8249   2.693   0.682   1.706  0.6687  0.1021 -0.2002
 2730SOL    HW1 8250   2.729   0.596   1.725  0.7425  0.0362 -0.6338
 2730SOL    HW2 8251   2.626   0.667   1.639  0.3537  0.3219  0.0589
 2731SOL     OW 8252   3.352   3.795   4.294  0.2747 -0.3240  0.1817
 2731SOL    HW1 8253   3.405   3.721   4.261  2.2033  0.6971  0.8388
 2731SOL    HW2 8254   3.350   3.856   4.221  0.0858 -0.3196  0.1917
 2732SOL     OW 8255   4.571   1.033   1.272 -0.8050 -0.6336 -0.2180
 2732SOL    HW1 8256   4.603   0.984   1.348 -1.4828 -1.0812 -0.2192
 2732SOL    HW2 8257   4.476   1.027   1.277 -1.0804  2.6365  1.1074
 2733SOL     OW 8258   2.199   2.642   4.064 -0.0367 -0.0189  1.0097
 2733SOL    HW1 8259   2.263   2.597   4.119  0.1879 -0.6809  0.2294
 2733SOL    HW2 8260   2.115   2.601   4.085  0.0514 -0.2811  0.8591
 2734SOL     OW 8261   1.760   4.013   0.254  0.0040 -0.2823  0.2389
 2734SOL    HW1 8262   1.737   3.921   0.260 -2.5683  0.1649 -1.2893
 2734SOL    HW2 8263   1.799   4.022   0.166 -1.4930  0.3569 -0.3938
 2735SOL     OW 8264   5.356   3.347   0.325  0.2278 -0.1263 -0.4461
 2735SOL    HW1 8265   5.323   3.326   0.238 -0.6118 -2.8567  0.4295
 2735SOL    HW2 8266   5.282   3.390   0.369 -0.0254 -0.5447 -0.4622
 2736SOL     OW 8267   3.887   3.735   0.415 -0.0552  0.2528  0.5195
 2736SOL    HW1 8268   3.879   3.640   0.430 -1.8283  0.3142  0.2288
 2736SOL    HW2 8269   3.943   3.743   0.338 -1.9333 -0.7391 -1.0553
 2737SOL     OW 8270   2.525   1.528   3.849 -0.1075  0.1613  0.1642
 2737SOL    HW1 8271   2.450   1.522   3.790 -2.2012 -1.0849  2.7268
 2737SOL    HW2 8272   2.503   1.469   3.922  2.3692  1.4437  2.1116
 2738SOL     OW 8273   1.369   5.024   0.007 -0.4311 -0.0011 -0.0301
 2738SOL    HW1 8274   1.365   5.010   0.102 -0.7276  0.1423 -0.0233
 2738SOL    HW2 8275   1.380   5.119  -0.003 -0.0582 -0.0531 -0.1298
 2739SOL     OW 8276   3.596   4.736   4.015 -0.2637 -0.3637 -0.5293
 2739SOL    HW1 8277   3.681   4.778   4.026 -0.4270 -0.3779  0.9746
 2739SOL    HW2 8278   3.546   4.760   4.093 -1.5928 -0.4970 -1.3025
 2740SOL     OW 8279   0.695   3.692   4.454  0.0491  0.6777 -0.0191
 2740SOL    HW1 8280   0.748   3.759   4.413 -0.1798  0.8241 -0.0775
 2740SOL    HW2 8281   0.632   3.667   4.387  0.0674  0.4789  0.0369
 2741SOL     OW 8282   1.742   4.450   3.070 -0.4113  0.0013  0.1720
 2741SOL    HW1 8283   1.791   4.524   3.034 -0.4742  0.5040  1.0615
 2741SOL    HW2 8284   1.791   4.424   3.148 -1.4021  0.3696  0.9495
 2742SOL     OW 8285   5.412   2.802   2.380  0.2887  0.3016  0.1220
 2742SOL    HW1 8286   5.420   2.804   2.284  0.5563 -2.1951  0.0407
 2742SOL    HW2 8287   5.498   2.773   2.411 -0.5869 -1.6651  0.8904
 2743SOL     OW 8288   0.260   5.036   2.986 -0.3069  0.0341  0.0129
 2743SOL    HW1 8289   0.216   5.113   3.021  1.6767 -0.2080  3.4372
 2743SOL    HW2 8290   0.208   4.962   3.016 -0.0254 -0.1065  0.1530
 2744SOL     OW 8291   1.716   2.372   0.632 -0.1738 -0.2640  0.3262
 2744SOL    HW1 8292   1.771   2.442   0.596 -1.7240  2.4419  2.8159
 2744SOL    HW2 8293   1.761   2.345   0.711  0.6674 -2.5990 -0.8635
 2745SOL     OW 8294   2.788   2.453   3.991 -0.1144 -0.2411  0.5711
 2745SOL    HW1 8295   2.868   2.447   4.044  0.2952 -2.9814 -0.2100
 2745SOL    HW2 8296   2.754   2.364   3.989 -2.3616  0.5730 -0.4336
 2746SOL     OW 8297   1.597   1.393   0.613 -0.5859  0.2051  0.4585
 2746SOL    HW1 8298   1.616   1.409   0.521 -2.0033  0.5942  0.2071
 2746SOL    HW2 8299   1.518   1.339   0.611 -0.6662  0.2776  1.4516
 2747SOL     OW 8300   4.058   2.873   1.079 -0.3954 -0.6050  0.0089
 2747SOL    HW1 8301   4.045   2.967   1.087  0.8076 -0.3252 -1.0131
 2747SOL    HW2 8302   4.111   2.849   1.155 -1.0101 -0.5292  0.4645
 2748SOL     OW 8303   0.411   1.744   2.916  0.7457 -0.2390 -0.4475
 2748SOL    HW1 8304   0.334   1.777   2.870  1.4107  0.1728 -1.2989
 2748SOL    HW2 8305   0.426   1.807   2.986  1.0646  0.4171 -1.0850
 2749SOL     OW 8306   4.234   1.994   1.833  0.4446 -0.5710 -0.2239
 2749SOL    HW1 8307   4.171   2.036   1.775 -1.4638 -0.1213  2.0380
 2749SOL    HW2 8308   4.263   1.916   1.785 -0.5016  0.1486 -2.0333
 2750SOL     OW 8309   0.203   0.502   2.292  0.0992  0.7742  0.6551
 2750SOL    HW1 8310   0.244   0.572   2.241  1.0714  0.3960  0.9000
 2750SOL    HW2 8311   0.274   0.442   2.312 -0.6098  0.0175  0.9660
 2751SOL     OW 8312   0.207   2.205   2.542 -0.0208  0.2887  0.4590
 2751SOL    HW1 8313   0.168   2.118   2.553 -2.0083  0.9815 -0.5257
 2751SOL    HW2 8314   0.132   2.263   2.525  1.1058  2.4590  2.3855
 2752SOL     OW 8315   3.563   4.517   0.738 -0.2624 -0.3323 -0.3974
 2752SOL    HW1 8316   3.649   4.482   0.717  0.7857  2.2038 -0.6620
 2752SOL    HW2 8317   3.576   4.565   0.820 -1.1662  0.9636 -0.9976
 2753SOL     OW 8318   4.803   0.162   3.226 -0.1483 -0.1913  0.1505
 2753SOL    HW1 8319   4.853   0.242   3.212  0.6203 -0.5903  0.4886
 2753SOL    HW2 8320   4.714   0.191   3.243 -0.1799  0.5082 -1.1288
 2754SOL     OW 8321   4.570   2.958   3.359  0.0641  0.1337 -0.0143
 2754SOL    HW1 8322   4.527   3.035   3.320  1.4882  0.5538 -0.8009
 2754SOL    HW2 8323   4.663   2.977   3.354  0.4502 -1.6637 -0.2312
 2755SOL     OW 8324   2.925   4.487   0.796  0.3823 -0.5995 -0.5270
 2755SOL    HW1 8325   2.907   4.580   0.813  0.8347 -0.3139 -1.5180
 2755SOL    HW2 8326   3.003   4.467   0.848  0.5181 -0.3164 -0.6205
 2756SOL     OW 8327   4.324   2.328   2.464  0.2168  0.2674  0.1790
 2756SOL    HW1 8328   4.345   2.260   2.400  0.6555  0.5568  0.0136
 2756SOL    HW2 8329   4.229   2.336   2.460  0.0483 -0.9893  0.8634
 2757SOL     OW 8330   3.391   0.673   1.016  0.5943 -0.3565  0.5822
 2757SOL    HW1 8331   3.356   0.715   0.937  0.7179 -1.2931  0.0237
 2757SOL    HW2 8332   3.395   0.744   1.081  2.3950  0.9347 -0.8328
 2758SOL     OW 8333   2.270   0.256   2.243 -0.4159  0.1636  0.0081
 2758SOL    HW1 8334   2.336   0.269   2.175 -0.3291  0.2480  0.1070
 2758SOL    HW2 8335   2.283   0.331   2.303  2.0012 -1.7810  2.1715
 2759SOL     OW 8336   0.723   3.327   2.458  1.0838  0.6069  0.4662
 2759SOL    HW1 8337   0.666   3.335   2.381 -1.5915 -1.9904  1.9914
 2759SOL    HW2 8338   0.798   3.277   2.427 -0.0531 -0.5996 -0.4665
 2760SOL     OW 8339   2.386   1.828   2.905  0.5643  0.4523  0.3449
 2760SOL    HW1 8340   2.299   1.865   2.913  0.1729 -0.4104  0.1613
 2760SOL    HW2 8341   2.378   1.761   2.837  2.3968  3.4454 -3.1902
 2761SOL     OW 8342   3.422   3.471   0.878  0.0712 -0.2114  0.3381
 2761SOL    HW1 8343   3.368   3.425   0.942  0.2386 -0.1843  0.4992
 2761SOL    HW2 8344   3.376   3.459   0.795  0.5098 -1.3576  0.2289
 2762SOL     OW 8345   0.940   4.424   2.272 -0.1506 -0.3635 -0.4593
 2762SOL    HW1 8346   0.852   4.388   2.283 -0.2835 -0.5826 -2.0089
 2762SOL    HW2 8347   0.957   4.471   2.353 -1.0861 -1.5812  0.4874
 2763SOL     OW 8348   3.323   3.743   0.501 -0.2073  0.3142 -0.6053
 2763SOL    HW1 8349   3.395   3.796   0.467 -1.5526  2.1164 -0.7616
 2763SOL    HW2 8350   3.249   3.762   0.443 -0.9424 -1.2118 -0.2310
 2764SOL     OW 8351   5.423   0.148   2.821  0.3442 -0.2244 -0.3324
 2764SOL    HW1 8352   5.359   0.216   2.846 -0.2254 -1.8176  3.0378
 2764SOL    HW2 8353   5.372   0.085   2.771  0.1293  0.2138 -0.6790
 2765SOL     OW 8354   1.353   4.292   3.286 -0.0879  0.4678 -0.0327
 2765SOL    HW1 8355   1.282   4.290   3.350 -0.7746  0.6844 -0.7852
 2765SOL    HW2 8356   1.368   4.385   3.270 -0.1387  0.4058 -0.4348
 2766SOL     OW 8357   4.536   1.816   1.862  0.4599  0.4065  0.0963
 2766SOL    HW1 8358   4.468   1.807   1.795  1.2489  1.8672 -0.9420
 2766SOL    HW2 8359   4.613   1.773   1.825  0.4412 -0.2628  0.8034
 2767SOL     OW 8360   3.835   0.420   0.389 -0.6035  0.0561  0.0068
 2767SOL    HW1 8361   3.822   0.360   0.316  2.4446 -1.5202  0.5674
 2767SOL    HW2 8362   3.893   0.488   0.355 -1.0570  0.6373  0.3665
 2768SOL     OW 8363   0.956   1.798   0.925  0.1057 -0.2538  0.5090
 2768SOL    HW1 8364   0.941   1.790   1.019 -0.6181 -2.1017  0.2888
 2768SOL    HW2 8365   0.950   1.708   0.893 -1.9716  0.5613 -1.6301
 2769SOL     OW 8366   2.799   4.290   0.201  0.5492 -0.2815  0.0899
 2769SOL    HW1 8367   2.729   4.235   0.166 -0.4828  0.1265  1.3868
 2769SOL    HW2 8368   2.801   4.367   0.144 -0.9272  0.2616  0.7084
 2770SOL     OW 8369   3.179   0.720   3.314  0.4752 -0.1163  0.3974
 2770SOL    HW1 8370   3.113   0.779   3.350  1.8161  0.2149  2.4583
 2770SOL    HW2 8371   3.222   0.771   3.246 -1.0802 -0.2046 -0.7013
 2771SOL     OW 8372   4.162   1.512   2.179  0.0878  0.1556  0.1902
 2771SOL    HW1 8373   4.141   1.495   2.087  0.3265  0.2052  0.1245
 2771SOL    HW2 8374   4.189   1.426   2.213  2.1808  0.5262 -0.3808
 2772SOL     OW 8375   4.681   3.078   2.624 -0.0990 -0.5887  0.4294
 2772SOL    HW1 8376   4.694   3.120   2.539 -1.3025 -1.0892 -0.0214
 2772SOL    HW2 8377   4.599   3.030   2.615  0.1089 -1.2155  1.6574
 2773SOL     OW 8378   1.769   2.693   2.316 -0.3424  0.4346 -0.5175
 2773SOL    HW1 8379   1.820   2.727   2.390  1.2990 -0.0547 -1.3520
 2773SOL    HW2 8380   1.769   2.764   2.253  1.1175 -0.2378 -1.3343
 2774SOL     OW 8381   0.259   2.563   1.141  0.2122  0.3810 -0.1804
 2774SOL    HW1 8382   0.233   2.473   1.123  0.7257  0.5953 -2.1661
 2774SOL    HW2 8383   0.233   2.577   1.232  0.9687 -2.0628  0.4941
 2775SOL     OW 8384   4.474   3.797   1.396 -0.4905  0.5828 -0.1357
 2775SOL    HW1 8385   4.411   3.795   1.325  1.5043  1.0273 -2.0247
 2775SOL    HW2 8386   4.446   3.727   1.455 -2.1062  0.0665 -1.4483
 2776SOL     OW 8387   1.132   0.729   0.911  0.2042  0.4987 -0.1057
 2776SOL    HW1 8388   1.047   0.766   0.886  0.2890 -0.2439 -1.6139
 2776SOL    HW2 8389   1.125   0.636   0.889  1.0610  0.2297  0.7171
 2777SOL     OW 8390   4.874   0.033   2.992 -0.1393  0.3027  0.1941
 2777SOL    HW1 8391   4.952   0.086   2.980 -0.1741  0.2720 -0.2102
 2777SOL    HW2 8392   4.846   0.048   3.082 -0.1750  0.9986  0.0674
 2778SOL     OW 8393   1.409   3.115   3.672 -0.0651 -0.5269 -0.5893
 2778SOL    HW1 8394   1.404   3.157   3.586 -1.1708  0.7572  0.0560
 2778SOL    HW2 8395   1.339   3.050   3.671 -1.0791  0.5107 -0.1829
 2779SOL     OW 8396   2.732   1.106   0.302  0.1725  0.0657  0.0730
 2779SOL    HW1 8397   2.768   1.094   0.214  1.1742  1.8910  0.1890
 2779SOL    HW2 8398   2.641   1.133   0.287  0.4097  0.6111 -0.4108
 2780SOL     OW 8399   3.752   1.429   4.074  0.1164  0.0893 -0.0471
 2780SOL    HW1 8400   3.822   1.490   4.099 -0.6127  0.7394  0.4360
 2780SOL    HW2 8401   3.671   1.472   4.100 -0.4649 -0.7625 -0.3813
 2781SOL     OW 8402   0.905   1.673   1.676 -0.4597 -0.0228 -0.0929
 2781SOL    HW1 8403   0.854   1.754   1.683 -1.4660 -0.6463 -0.1544
 2781SOL    HW2 8404   0.909   1.656   1.581 -1.5162 -0.8258 -0.0113
 2782SOL     OW 8405   4.032   0.191   3.806 -0.8136  0.2049 -0.0290
 2782SOL    HW1 8406   3.991   0.164   3.888  0.4134 -1.3063  0.1235
 2782SOL    HW2 8407   4.013   0.121   3.744  0.6826 -0.0671 -0.2166
 2783SOL     OW 8408   1.024   3.004   0.918 -0.2927 -0.3795 -0.0892
 2783SOL    HW1 8409   1.001   2.976   0.829 -1.6013 -0.3521  0.2297
 2783SOL    HW2 8410   1.060   3.092   0.906 -0.2206 -0.4768 -0.6215
 2784SOL     OW 8411   2.877   0.743   0.508 -0.4197 -0.5112  0.1003
 2784SOL    HW1 8412   2.957   0.793   0.524 -1.3019  0.7828  0.6234
 2784SOL    HW2 8413   2.897   0.688   0.432 -0.2355  2.5696 -2.2500
 2785SOL     OW 8414   5.130   3.040   3.120  0.7429  0.1164 -0.1249
 2785SOL    HW1 8415   5.167   2.971   3.174 -0.0519 -1.2941 -1.2944
 2785SOL    HW2 8416   5.206   3.092   3.092  1.5226 -1.0167 -0.1965
 2786SOL     OW 8417   0.187   0.705   0.654  0.2919  0.4999 -0.2211
 2786SOL    HW1 8418   0.280   0.686   0.645  0.0562 -0.6793 -0.3797
 2786SOL    HW2 8419   0.146   0.653   0.585 -0.4552  1.3029 -0.3979
 2787SOL     OW 8420   2.411   2.663   1.901 -0.9460 -0.7135  0.1623
 2787SOL    HW1 8421   2.358   2.743   1.899 -1.2964 -0.9598 -0.5185
 2787SOL    HW2 8422   2.366   2.606   1.964 -1.8692 -1.1660 -0.8650
 2788SOL     OW 8423   2.161   3.179   0.120 -0.1992 -0.7174  0.2400
 2788SOL    HW1 8424   2.255   3.190   0.104 -0.2298 -0.4397  0.2349
 2788SOL    HW2 8425   2.121   3.249   0.068 -0.4318 -1.0583 -0.0408
 2789SOL     OW 8426   1.097   4.475   3.295 -0.7019 -0.2408 -0.8963
 2789SOL    HW1 8427   1.017   4.517   3.326 -0.4036 -0.3873  0.1227
 2789SOL    HW2 8428   1.164   4.543   3.303 -0.3988 -0.6247 -0.1280
 2790SOL     OW 8429   1.918   0.675   0.124  0.0304 -0.5063  0.3198
 2790SOL    HW1 8430   1.944   0.590   0.160  0.3097 -0.6804 -0.2760
 2790SOL    HW2 8431   1.984   0.736   0.159  0.4377 -0.7129 -0.0720
 2791SOL     OW 8432   0.164   2.461   1.405  0.2276 -0.0321 -0.2724
 2791SOL    HW1 8433   0.073   2.492   1.407 -0.1521 -0.7068 -2.8206
 2791SOL    HW2 8434   0.162   2.388   1.343  2.3143 -0.8214  0.5209
 2792SOL     OW 8435   5.064   0.582   0.973  0.0301  0.0166  1.0792
 2792SOL    HW1 8436   4.986   0.529   0.993  0.7500 -0.3258  3.3265
 2792SOL    HW2 8437   5.138   0.526   0.996  0.9677  0.5279 -0.5247
 2793SOL     OW 8438   4.292   0.816   2.877 -0.1790  0.5091  0.4084
 2793SOL    HW1 8439   4.210   0.806   2.828 -0.2414  0.1048  0.5844
 2793SOL    HW2 8440   4.273   0.777   2.962  0.4542 -0.3779  0.1613
 2794SOL     OW 8441   0.880   4.840   2.183 -0.1595 -0.0608  0.1792
 2794SOL    HW1 8442   0.926   4.772   2.134  0.4638  0.7024 -0.3258
 2794SOL    HW2 8443   0.817   4.876   2.120  1.8968  2.1960 -0.7852
 2795SOL     OW 8444   4.092   0.058   1.974 -0.4148 -0.6947 -0.3187
 2795SOL    HW1 8445   4.092   0.151   2.000  1.9602 -0.7216  0.0343
 2795SOL    HW2 8446   4.036   0.015   2.039 -0.8051  0.3626  0.0668
 2796SOL     OW 8447   5.194   3.041   2.153 -0.5980 -0.1466 -0.4335
 2796SOL    HW1 8448   5.287   3.020   2.160 -0.8123 -0.6566  1.9643
 2796SOL    HW2 8449   5.162   2.987   2.080  0.4975 -2.0746  0.4181
 2797SOL     OW 8450   0.959   3.812   3.987 -0.3948  0.3203 -0.2292
 2797SOL    HW1 8451   1.022   3.787   3.919 -2.3259  0.4790 -2.1635
 2797SOL    HW2 8452   1.000   3.887   4.031  1.1259 -0.1063 -0.8362
 2798SOL     OW 8453   0.412   3.233   3.067 -0.2261  0.8371  0.1312
 2798SOL    HW1 8454   0.323   3.197   3.061  0.1292 -0.2512  1.0544
 2798SOL    HW2 8455   0.454   3.204   2.986 -0.2505 -0.0264  0.4107
 2799SOL     OW 8456   3.208   4.506   3.023 -0.1131  0.1330  0.6159
 2799SOL    HW1 8457   3.178   4.522   2.934  1.2436  0.5072  0.2138
 2799SOL    HW2 8458   3.275   4.573   3.039  0.5341 -0.6885  1.4726
 2800SOL     OW 8459   0.386   4.603   1.820  0.5732  0.2808 -0.3954
 2800SOL    HW1 8460   0.357   4.512   1.830 -0.7335  0.7330  0.1020
 2800SOL    HW2 8461   0.374   4.622   1.727  1.3170 -0.1976 -0.5962
 2801SOL     OW 8462   1.154   0.876   0.108 -0.1820  0.0067 -0.6896
 2801SOL    HW1 8463   1.144   0.802   0.167 -2.0442  0.5179 -0.3096
 2801SOL    HW2 8464   1.101   0.853   0.031 -0.5139  0.7845 -0.7038
 2802SOL     OW 8465   0.884   2.003   1.486 -0.2157  0.0291 -0.1256
 2802SOL    HW1 8466   0.841   1.946   1.549 -1.1885 -1.0041 -1.6537
 2802SOL    HW2 8467   0.814   2.032   1.428  0.9780 -1.1820 -2.3118
 2803SOL     OW 8468   0.663   2.131   1.061 -0.3162 -0.6447 -0.1596
 2803SOL    HW1 8469   0.680   2.050   1.013  2.0083 -0.0110 -0.5230
 2803SOL    HW2 8470   0.720   2.195   1.021  0.8846  0.2098  2.6492
 2804SOL     OW 8471   0.461   4.810   2.032 -0.0532  0.1362  0.8325
 2804SOL    HW1 8472   0.377   4.807   2.078  0.0066 -1.1177  0.9076
 2804SOL    HW2 8473   0.454   4.741   1.965  0.5820  0.6326  0.2422
 2805SOL     OW 8474   1.820   3.509   3.742  0.6472 -0.1491 -0.5246
 2805SOL    HW1 8475   1.906   3.550   3.735  1.0080 -0.8102  0.0530
 2805SOL    HW2 8476   1.793   3.523   3.833  0.0934  0.1504 -0.7282
 2806SOL     OW 8477   3.254   3.340   1.062  0.1015  0.1194 -0.0948
 2806SOL    HW1 8478   3.160   3.353   1.074  0.0028 -1.2424  0.7985
 2806SOL    HW2 8479   3.291   3.347   1.150  0.7333 -0.1488 -0.3275
 2807SOL     OW 8480   1.166   3.630   2.700 -0.4267  0.0800 -0.0097
 2807SOL    HW1 8481   1.223   3.664   2.631 -0.4160 -0.5864 -0.3422
 2807SOL    HW2 8482   1.128   3.550   2.662  0.6563 -1.1006  1.2527
 2808SOL     OW 8483   4.738   0.541   3.159  0.3298  0.1016  0.0948
 2808SOL    HW1 8484   4.683   0.618   3.176  0.7639  0.1551  1.3318
 2808SOL    HW2 8485   4.762   0.549   3.067  0.1468  1.3029  0.1329
 2809SOL     OW 8486   4.816   0.954   2.050 -0.3166  0.1414 -0.3402
 2809SOL    HW1 8487   4.726   0.967   2.080 -0.7119  0.5535 -1.6229
 2809SOL    HW2 8488   4.868   1.013   2.104 -0.9871  0.7978 -0.3933
 2810SOL     OW 8489   5.305   0.600   4.063  0.9112 -0.7532 -0.1434
 2810SOL    HW1 8490   5.280   0.600   4.155  0.1330  2.1738 -0.2476
 2810SOL    HW2 8491   5.239   0.546   4.019 -0.8083  0.6453  0.6097
 2811SOL     OW 8492   2.498   2.510   3.473 -0.0564 -0.6366  0.1255
 2811SOL    HW1 8493   2.581   2.462   3.469  0.5004  0.2867  0.2324
 2811SOL    HW2 8494   2.446   2.463   3.537 -0.2920 -2.2440 -1.1842
 2812SOL     OW 8495   1.705   2.773   4.031 -0.0257 -0.3562 -0.0305
 2812SOL    HW1 8496   1.673   2.809   3.949  0.8345 -0.0037 -0.2261
 2812SOL    HW2 8497   1.716   2.849   4.088  0.6440 -0.4450 -0.0369
 2813SOL     OW 8498   3.228   2.507   3.469  0.2427  0.3764 -0.0131
 2813SOL    HW1 8499   3.253   2.415   3.481  0.2842  0.1791 -1.4763
 2813SOL    HW2 8500   3.181   2.509   3.386  0.4543  1.7208 -0.1314
 2814SOL     OW 8501   1.664   1.938   3.234 -0.1734  0.1742  0.1610
 2814SOL    HW1 8502   1.624   2.024   3.221 -0.8106 -0.3404 -1.7472
 2814SOL    HW2 8503   1.622   1.904   3.313  0.2998  1.6966  1.1064
 2815SOL     OW 8504   5.032   2.232   0.847 -0.4084 -0.3974  0.0468
 2815SOL    HW1 8505   5.030   2.327   0.839 -1.9562 -0.5139 -1.2234
 2815SOL    HW2 8506   5.010   2.199   0.760  1.2943 -1.9644  0.1274
 2816SOL     OW 8507   2.179   0.064   4.044 -0.1371  0.1893 -0.2315
 2816SOL    HW1 8508   2.133   0.103   4.119  2.4123  0.4630  1.3062
 2816SOL    HW2 8509   2.176   0.132   3.977  0.2562  1.2351  0.7751
 2817SOL     OW 8510   1.125   1.411   1.064 -0.4103 -0.4193 -0.3033
 2817SOL    HW1 8511   1.164   1.436   1.148 -0.8334  3.2876 -1.0515
 2817SOL    HW2 8512   1.199   1.405   1.004 -0.4149  0.5700 -0.4192
 2818SOL     OW 8513   4.981   4.052   2.363 -0.2520 -0.4419  0.4955
 2818SOL    HW1 8514   4.988   3.958   2.348 -0.5560 -0.5495  1.0058
 2818SOL    HW2 8515   5.017   4.064   2.451 -2.1782 -0.3817  1.3194
 2819SOL     OW 8516   1.436   0.737   1.680  0.3209 -0.4685  0.1389
 2819SOL    HW1 8517   1.511   0.726   1.622  1.0004  1.1657  0.6376
 2819SOL    HW2 8518   1.361   0.704   1.630  1.2882 -1.6857 -0.5532
 2820SOL     OW 8519   2.129   2.144   4.374  0.8463 -0.5911 -0.7553
 2820SOL    HW1 8520   2.056   2.084   4.385  0.2679  0.3133  0.4476
 2820SOL    HW2 8521   2.104   2.199   4.300  1.1665 -1.4774 -1.5486
 2821SOL     OW 8522   4.027   0.463   0.599  0.3144  0.3926 -0.0883
 2821SOL    HW1 8523   4.002   0.546   0.559 -0.0364  0.7174  0.7818
 2821SOL    HW2 8524   4.028   0.400   0.527  2.1180  1.4472 -1.0668
 2822SOL     OW 8525   4.796   1.039   3.370 -0.1242  0.2931  0.0339
 2822SOL    HW1 8526   4.725   1.000   3.421  0.5318 -0.0784  0.6832
 2822SOL    HW2 8527   4.769   1.131   3.359 -1.2396 -0.1128 -0.7260
 2823SOL     OW 8528   1.491   0.625   1.431  0.0170  0.4834 -0.3556
 2823SOL    HW1 8529   1.534   0.559   1.377  0.7744 -0.1344  0.9583
 2823SOL    HW2 8530   1.411   0.646   1.383 -0.5086 -1.7723 -0.5963
 2824SOL     OW 8531   1.699   2.468   0.358 -0.0339 -0.5926  0.0914
 2824SOL    HW1 8532   1.739   2.385   0.384  0.5076 -0.4048 -0.1207
 2824SOL    HW2 8533   1.765   2.534   0.379 -0.4997 -0.2003  0.3532
 2825SOL     OW 8534   0.351   2.177   3.020 -0.3514  0.1689  0.3736
 2825SOL    HW1 8535   0.437   2.169   3.062 -0.2344 -0.2149  0.0758
 2825SOL    HW2 8536   0.303   2.239   3.074  0.5072  1.2802 -0.1006
 2826SOL     OW 8537   0.715   4.384   1.512 -0.4784 -0.3752  0.0291
 2826SOL    HW1 8538   0.755   4.460   1.554  1.5124 -1.2715 -0.1204
 2826SOL    HW2 8539   0.745   4.390   1.421 -0.8591 -0.9818 -0.1360
 2827SOL     OW 8540   4.435   1.348   1.035  0.6162 -0.5975 -0.0764
 2827SOL    HW1 8541   4.476   1.372   1.118  2.1135  0.3368 -1.0446
 2827SOL    HW2 8542   4.503   1.299   0.988  0.5320  0.6798 -1.5870
 2828SOL     OW 8543   4.253   3.462   2.023 -0.4432 -0.0941  0.6180
 2828SOL    HW1 8544   4.338   3.433   2.056 -0.0122 -0.1528 -0.4992
 2828SOL    HW2 8545   4.267   3.553   1.997 -1.0040  0.2174  1.3610
 2829SOL     OW 8546   1.153   2.700   0.755  0.4158  0.6691  0.0329
 2829SOL    HW1 8547   1.109   2.652   0.684  0.4401 -0.5645  0.8187
 2829SOL    HW2 8548   1.099   2.778   0.767 -0.0504  0.4937 -0.7954
 2830SOL     OW 8549   2.078   4.323   2.524 -0.0615 -0.0445 -0.2669
 2830SOL    HW1 8550   2.119   4.282   2.601  1.1280 -0.8650 -1.2946
 2830SOL    HW2 8551   2.117   4.278   2.450 -1.5225  0.4253 -1.3635
 2831SOL     OW 8552   1.493   1.313   1.551 -0.2674 -0.2190 -0.4819
 2831SOL    HW1 8553   1.455   1.289   1.466 -0.3085  0.5771 -0.6994
 2831SOL    HW2 8554   1.417   1.318   1.609 -0.3662  0.2042 -0.6385
 2832SOL     OW 8555   2.679   3.392   0.602  0.4966 -0.4554 -0.1079
 2832SOL    HW1 8556   2.666   3.400   0.697 -1.6358 -0.2731 -0.3648
 2832SOL    HW2 8557   2.631   3.466   0.565  1.9354 -0.0906 -1.3243
 2833SOL     OW 8558   2.477   1.993   0.770  0.0188  0.1717 -0.7855
 2833SOL    HW1 8559   2.517   1.917   0.728  0.2018  0.6009 -1.3951
 2833SOL    HW2 8560   2.551   2.046   0.800 -0.1057  0.2913 -0.6861
 2834SOL     OW 8561   0.152   4.906   0.646 -0.4233  0.0085 -0.1287
 2834SOL    HW1 8562   0.193   4.969   0.587 -1.3294  0.3640 -0.4131
 2834SOL    HW2 8563   0.119   4.959   0.719 -0.1172 -0.3019  0.2339
 2835SOL     OW 8564   0.572   4.726   3.233 -1.1033  0.1665  0.6550
 2835SOL    HW1 8565   0.607   4.812   3.207  1.2558 -0.9644 -0.1970
 2835SOL    HW2 8566   0.532   4.692   3.153 -2.4113  0.6097  1.1022
 2836SOL     OW 8567   0.435   4.553   2.648 -0.3025 -0.3097 -0.7547
 2836SOL    HW1 8568   0.341   4.572   2.640 -0.1898  0.4190 -0.3724
 2836SOL    HW2 8569   0.447   4.528   2.739  0.0899  0.8732 -0.4655
 2837SOL     OW 8570   1.266   3.914   3.255 -0.3607  0.3284  0.1291
 2837SOL    HW1 8571   1.335   3.906   3.320 -1.9011 -1.2457  1.6735
 2837SOL    HW2 8572   1.196   3.856   3.286 -1.7373  0.5889 -2.2024
 2838SOL     OW 8573   0.709   3.565   2.623 -0.5602 -0.4255 -0.8721
 2838SOL    HW1 8574   0.710   3.489   2.564 -0.4555 -1.7222  0.7111
 2838SOL    HW2 8575   0.759   3.536   2.699 -0.3078  1.3484 -0.3159
 2839SOL     OW 8576   2.697   3.565   1.739  0.1005 -0.0524 -0.0202
 2839SOL    HW1 8577   2.739   3.484   1.768  0.3131  0.9270  2.6849
 2839SOL    HW2 8578   2.710   3.566   1.644  0.9516 -2.6723 -0.0077
 2840SOL     OW 8579   3.123   3.913   3.690 -0.5368  0.3761 -0.3117
 2840SOL    HW1 8580   3.100   3.860   3.766  0.2882  0.1629 -0.2052
 2840SOL    HW2 8581   3.215   3.892   3.673 -0.9408 -0.2690 -1.9044
 2841SOL     OW 8582   3.796   4.352   1.558  0.0392 -0.0992  0.1759
 2841SOL    HW1 8583   3.761   4.306   1.634 -1.1386  0.2365 -0.1466
 2841SOL    HW2 8584   3.764   4.303   1.483 -0.1525  0.5000 -0.1399
 2842SOL     OW 8585   1.154   4.085   2.889  0.0847  0.1996 -0.2581
 2842SOL    HW1 8586   1.164   4.128   2.974 -0.2765  2.7035 -1.3839
 2842SOL    HW2 8587   1.234   4.107   2.841 -1.0781  1.6874 -1.6559
 2843SOL     OW 8588   2.318   4.772   3.000 -0.0149  0.4948 -0.4555
 2843SOL    HW1 8589   2.362   4.687   3.006  1.3202  1.0622 -1.6608
 2843SOL    HW2 8590   2.261   4.764   2.924 -0.9417  0.2584  0.2362
 2844SOL     OW 8591   1.882   1.229   3.287  0.0322 -0.0746  0.1196
 2844SOL    HW1 8592   1.879   1.285   3.364 -3.1326  0.1367 -0.0377
 2844SOL    HW2 8593   1.908   1.143   3.320 -1.1925  0.0351  1.4533
 2845SOL     OW 8594   0.037   3.811   3.740 -0.2373  0.1706 -0.2001
 2845SOL    HW1 8595  -0.017   3.739   3.706  1.0838 -1.1717  0.3956
 2845SOL    HW2 8596   0.075   3.851   3.662 -0.5387 -0.1441 -0.5142
 2846SOL     OW 8597   0.903   0.507   0.009 -1.1194 -0.0785 -0.1166
 2846SOL    HW1 8598   0.902   0.516   0.105 -1.1955  0.7950 -0.1914
 2846SOL    HW2 8599   0.820   0.466  -0.012 -1.7053  0.9762  0.0872
 2847SOL     OW 8600   1.851   4.501   1.347  0.2293 -0.1072 -0.8349
 2847SOL    HW1 8601   1.799   4.504   1.428  1.1615 -1.8507 -0.1092
 2847SOL    HW2 8602   1.868   4.593   1.326  0.8491  0.3907  1.5624
 2848SOL     OW 8603   2.273   0.936   4.331  0.4479 -0.0213 -0.0889
 2848SOL    HW1 8604   2.336   0.991   4.378 -1.2120  0.0935  2.1766
 2848SOL    HW2 8605   2.306   0.847   4.343  2.1007  0.2421 -2.1208
 2849SOL     OW 8606   4.893   1.322   1.905 -0.1548  0.2431  0.6391
 2849SOL    HW1 8607   4.904   1.296   1.996 -0.2822  1.2933  0.9682
 2849SOL    HW2 8608   4.934   1.409   1.900  0.6172 -0.1653 -0.5070
 2850SOL     OW 8609   3.592   0.506   4.211 -0.6611 -0.5593 -0.1366
 2850SOL    HW1 8610   3.676   0.553   4.210 -1.0433  0.1416 -0.1217
 2850SOL    HW2 8611   3.548   0.538   4.289 -1.1934 -0.4611 -0.4714
 2851SOL     OW 8612   1.463   4.550   1.983  0.3668 -0.2967  0.2347
 2851SOL    HW1 8613   1.446   4.534   2.076  4.0595  2.6785  1.6294
 2851SOL    HW2 8614   1.553   4.522   1.969  0.2505  0.3005 -2.2259
 2852SOL     OW 8615   1.184   4.898   2.943  0.0786  0.1459 -0.8782
 2852SOL    HW1 8616   1.131   4.887   2.865 -0.9173 -0.5663 -0.1270
 2852SOL    HW2 8617   1.204   4.992   2.946 -2.2924  0.6954 -0.4820
 2853SOL     OW 8618   3.764   1.626   4.338 -0.5851 -0.0642  0.6238
 2853SOL    HW1 8619   3.716   1.689   4.392  0.2239  0.0758  1.1865
 2853SOL    HW2 8620   3.854   1.632   4.368 -0.3846 -1.0343  0.2430
 2854SOL     OW 8621   0.942   1.520   1.924 -0.0537 -0.3733 -0.6091
 2854SOL    HW1 8622   0.940   1.558   1.836  0.4471 -0.0921 -0.5007
 2854SOL    HW2 8623   1.034   1.500   1.940  0.0735  0.8743  0.3931
 2855SOL     OW 8624   5.328   3.628   3.670 -0.0030  0.7875  0.5633
 2855SOL    HW1 8625   5.338   3.569   3.596  0.0349 -0.2227  1.3497
 2855SOL    HW2 8626   5.273   3.699   3.637 -0.0393  0.3189 -0.4125
 2856SOL     OW 8627   1.170   0.775   2.788  0.2898 -0.0649 -0.2445
 2856SOL    HW1 8628   1.255   0.763   2.830  1.1807  0.0385 -1.9719
 2856SOL    HW2 8629   1.140   0.861   2.819  0.7157 -0.1803  0.5107
 2857SOL     OW 8630   0.740   1.628   0.230  0.1487  0.3629  0.6211
 2857SOL    HW1 8631   0.746   1.563   0.160  0.1865  0.1827  0.7914
 2857SOL    HW2 8632   0.743   1.713   0.185  0.4118  0.2488  0.4268
 2858SOL     OW 8633   1.429   3.780   0.001  0.8700 -0.2693 -0.0653
 2858SOL    HW1 8634   1.449   3.827   0.082  0.5603 -3.0292  1.7417
 2858SOL    HW2 8635   1.333   3.783  -0.004  0.8937 -0.0071 -0.4270
 2859SOL     OW 8636   4.449   4.042   2.349  0.5512 -0.5293  0.0311
 2859SOL    HW1 8637   4.429   4.074   2.437 -0.0030 -0.0672 -0.2532
 2859SOL    HW2 8638   4.542   4.061   2.337  0.1317  1.5185 -0.3320
 2860SOL     OW 8639   5.316   2.859   1.283  0.7312  1.1379  0.6512
 2860SOL    HW1 8640   5.307   2.952   1.304 -0.5557  1.3025 -0.5257
 2860SOL    HW2 8641   5.372   2.824   1.353 -0.5516  2.3389  2.3658
 2861SOL     OW 8642   0.364   0.053   1.265  0.0375  0.9759  0.0407
 2861SOL    HW1 8643   0.297   0.047   1.198  2.1093  0.4671 -2.1419
 2861SOL    HW2 8644   0.347  -0.022   1.323  1.2940 -2.0189 -3.1341
 2862SOL     OW 8645   3.661   3.372   4.437  0.2693 -0.3395  0.2150
 2862SOL    HW1 8646   3.580   3.330   4.466  1.1494 -1.2247  1.5310
 2862SOL    HW2 8647   3.667   3.351   4.343 -1.8920  1.3010 -0.3641
 2863SOL     OW 8648   3.440   5.094   2.567  0.3408 -0.5262  0.0988
 2863SOL    HW1 8649   3.377   5.165   2.580  0.3378 -0.1849 -1.5666
 2863SOL    HW2 8650   3.509   5.111   2.631 -0.0433  0.5277  0.2573
 2864SOL     OW 8651   4.446   1.807   2.859  0.3959 -0.4546 -0.0902
 2864SOL    HW1 8652   4.381   1.808   2.789  0.6732 -2.7044 -0.4561
 2864SOL    HW2 8653   4.455   1.899   2.884 -1.6182  0.1224 -1.2097
 2865SOL     OW 8654   4.301   1.032   1.276 -0.8146 -0.2839 -0.3424
 2865SOL    HW1 8655   4.243   0.974   1.226 -1.2112  0.0204 -0.2389
 2865SOL    HW2 8656   4.243   1.099   1.311 -0.4043 -0.0084 -0.1897
 2866SOL     OW 8657   2.856   4.497   2.132 -0.1673  0.3478  0.4240
 2866SOL    HW1 8658   2.903   4.551   2.196 -2.3682  2.0754  0.7137
 2866SOL    HW2 8659   2.764   4.525   2.140 -0.6494  0.1104 -2.9730
 2867SOL     OW 8660   5.347   0.996   3.366 -0.3952 -0.1840 -0.8133
 2867SOL    HW1 8661   5.319   1.074   3.413 -0.4937 -0.7130  0.0487
 2867SOL    HW2 8662   5.442   1.003   3.362 -0.5459  1.4849 -3.5131
 2868SOL     OW 8663   1.007   4.421   0.408  0.2515 -0.0021  0.2681
 2868SOL    HW1 8664   1.066   4.347   0.424 -0.8888 -1.2472 -1.0307
 2868SOL    HW2 8665   0.955   4.395   0.332 -0.9392  1.6923  0.4378
 2869SOL     OW 8666   4.598   4.447   1.753 -0.4420  0.1452  0.0293
 2869SOL    HW1 8667   4.601   4.364   1.705 -1.7500  0.2147 -0.2170
 2869SOL    HW2 8668   4.627   4.426   1.841  0.1066 -0.3877 -0.2777
 2870SOL     OW 8669   0.215   1.719   2.265 -0.1366 -0.6691  0.6296
 2870SOL    HW1 8670   0.142   1.682   2.315 -0.9576  1.0300  0.7620
 2870SOL    HW2 8671   0.266   1.643   2.238 -1.8415 -1.9003  0.7044
 2871SOL     OW 8672   3.606   0.173   0.786  0.5902 -0.7464 -0.1386
 2871SOL    HW1 8673   3.619   0.165   0.692 -0.6748 -0.9762 -0.3099
 2871SOL    HW2 8674   3.684   0.219   0.817 -0.1967  1.8154 -1.6780
 2872SOL     OW 8675   0.115   4.844   3.329  0.2324 -0.0482  0.0359
 2872SOL    HW1 8676   0.082   4.834   3.240  0.2012 -0.3346  0.0787
 2872SOL    HW2 8677   0.192   4.900   3.321  1.6327 -1.9623 -0.4774
 2873SOL     OW 8678   3.618   2.283   0.085 -0.2492  0.0220 -0.1056
 2873SOL    HW1 8679   3.570   2.227   0.146  0.3264  1.0126  1.3082
 2873SOL    HW2 8680   3.661   2.348   0.141  0.2662  0.9981 -1.5794
 2874SOL     OW 8681   0.896   3.838   1.554  0.2839  0.2876 -0.2148
 2874SOL    HW1 8682   0.804   3.857   1.572  0.8027  2.3677  0.4975
 2874SOL    HW2 8683   0.916   3.760   1.605 -1.0218 -0.0678 -0.2327
 2875SOL     OW 8684   4.414   3.115   1.242  0.0822  0.0367  0.2768
 2875SOL    HW1 8685   4.506   3.129   1.219  0.3778  0.6426  1.6871
 2875SOL    HW2 8686   4.409   3.022   1.264  0.4196  0.0524  0.4382
 2876SOL     OW 8687   0.549   3.867   2.742 -0.6071  0.3323 -0.2322
 2876SOL    HW1 8688   0.598   3.904   2.816 -2.2051 -0.2436  1.1843
 2876SOL    HW2 8689   0.594   3.901   2.665  1.0407  1.0903  0.9891
 2877SOL     OW 8690   1.502   4.584   4.067  0.3662 -0.1495 -0.2021
 2877SOL    HW1 8691   1.502   4.676   4.039 -0.3866 -0.1881 -0.3596
 2877SOL    HW2 8692   1.588   4.552   4.041  0.2648  0.2430 -1.0821
 2878SOL     OW 8693   0.711   4.532   3.362  0.5742  0.0836 -0.0098
 2878SOL    HW1 8694   0.668   4.511   3.444  0.1849 -1.4008 -0.5683
 2878SOL    HW2 8695   0.652   4.595   3.320  0.8403  0.9525  0.8718
 2879SOL     OW 8696   0.541   1.929   2.096  0.2414 -0.1439 -0.5572
 2879SOL    HW1 8697   0.600   1.855   2.107 -0.7111 -1.2486 -2.3731
 2879SOL    HW2 8698   0.465   1.907   2.150  0.0977 -0.3319 -0.8356
 2880SOL     OW 8699   1.507   3.922   3.408 -0.5829 -0.1303 -0.0016
 2880SOL    HW1 8700   1.490   3.955   3.496 -2.4228 -0.7221 -0.1054
 2880SOL    HW2 8701   1.593   3.880   3.415 -0.1486  0.8796  1.1795
 2881SOL     OW 8702   1.884   3.019   1.129 -0.3195  0.1351  0.1559
 2881SOL    HW1 8703   1.900   2.927   1.107  1.0375  0.6705 -1.2861
 2881SOL    HW2 8704   1.956   3.042   1.188  0.4417  0.7449 -0.9724
 2882SOL     OW 8705   1.404   4.428   1.073 -0.0480 -0.0323  0.2462
 2882SOL    HW1 8706   1.313   4.444   1.095 -0.9708 -2.6512 -1.2433
 2882SOL    HW2 8707   1.445   4.404   1.156 -0.8350  0.5773  0.8239
 2883SOL     OW 8708   4.121   5.140   1.970 -0.1947  0.5254 -0.2445
 2883SOL    HW1 8709   4.060   5.148   2.044  0.1103  1.2318 -0.0633
 2883SOL    HW2 8710   4.186   5.077   1.999 -1.4299 -1.0986 -0.8571
 2884SOL     OW 8711   0.249   2.352   3.211 -0.4330 -0.6360 -0.6921
 2884SOL    HW1 8712   0.169   2.358   3.264  0.2412 -1.8170  0.5202
 2884SOL    HW2 8713   0.312   2.409   3.255  0.1105 -1.5720 -0.2232
 2885SOL     OW 8714   2.097   3.280   3.636  0.1300  0.2940 -0.1593
 2885SOL    HW1 8715   2.128   3.265   3.547 -0.7178 -1.2369 -0.2358
 2885SOL    HW2 8716   2.138   3.210   3.688 -0.5119  0.2946  0.3668
 2886SOL     OW 8717   2.001   2.277   1.456 -0.1721 -0.7286  0.0830
 2886SOL    HW1 8718   1.959   2.220   1.392  0.3382 -0.8965 -0.1077
 2886SOL    HW2 8719   2.065   2.327   1.406  0.7026 -1.3391  0.5517
 2887SOL     OW 8720   3.869   1.344   0.482 -0.2622  0.8580  0.0309
 2887SOL    HW1 8721   3.886   1.428   0.439 -0.0074  0.5768 -0.4255
 2887SOL    HW2 8722   3.780   1.321   0.454 -0.3365  0.9846  0.1655
 2888SOL     OW 8723   4.935   3.774   1.601  0.5515  0.2094 -0.2856
 2888SOL    HW1 8724   4.889   3.804   1.523  0.7897 -2.3320 -1.5279
 2888SOL    HW2 8725   4.941   3.851   1.657 -2.3030  1.4201 -1.4486
 2889SOL     OW 8726   0.965   3.511   2.161  0.3264 -0.0219 -0.7614
 2889SOL    HW1 8727   1.051   3.480   2.188  0.2303  0.5205  0.2247
 2889SOL    HW2 8728   0.964   3.603   2.186 -1.2862 -0.5106  1.2193
 2890SOL     OW 8729   2.391   1.266   2.331 -0.4063 -0.5988  0.6995
 2890SOL    HW1 8730   2.458   1.197   2.321  1.6080  1.1459  1.3455
 2890SOL    HW2 8731   2.385   1.305   2.243 -1.3568 -1.3752  0.3980
 2891SOL     OW 8732   0.536   0.574   1.563  0.5501  0.2484  0.2807
 2891SOL    HW1 8733   0.506   0.588   1.473 -0.2107  0.3065  0.5390
 2891SOL    HW2 8734   0.630   0.558   1.554  0.3797 -0.3485 -0.5881
 2892SOL     OW 8735   5.347   3.750   3.984 -0.1882  0.5163  0.3864
 2892SOL    HW1 8736   5.370   3.733   3.893 -0.1117  1.4741  0.2139
 2892SOL    HW2 8737   5.252   3.762   3.984 -0.4802 -1.4149  0.7704
 2893SOL     OW 8738   4.380   2.865   4.376 -0.1736  0.5334  0.0303
 2893SOL    HW1 8739   4.317   2.868   4.448  0.3898 -1.9902  0.7558
 2893SOL    HW2 8740   4.328   2.882   4.298 -1.7655 -1.0892  0.6366
 2894SOL     OW 8741   1.307   3.674   0.483 -0.4689  0.2645 -0.5592
 2894SOL    HW1 8742   1.256   3.722   0.417 -1.1331  1.7167  0.9151
 2894SOL    HW2 8743   1.336   3.742   0.544  0.6125 -0.9498  0.3320
 2895SOL     OW 8744   0.315   3.912   2.442  0.1716 -0.5983  0.2697
 2895SOL    HW1 8745   0.406   3.940   2.451  0.2259 -0.8504  0.5327
 2895SOL    HW2 8746   0.311   3.868   2.357  0.0491  0.3322 -0.2197
 2896SOL     OW 8747   4.011   1.615   1.124  0.0869  0.3228  0.1305
 2896SOL    HW1 8748   4.072   1.658   1.064  1.2289 -0.4338  0.7013
 2896SOL    HW2 8749   4.025   1.659   1.208 -1.0943  1.0002 -0.0167
 2897SOL     OW 8750   2.983   4.638   3.674  0.6445  0.4126 -0.1098
 2897SOL    HW1 8751   2.976   4.641   3.578  0.2062  3.5908 -0.0769
 2897SOL    HW2 8752   3.077   4.631   3.691  0.6600 -1.3587 -0.7127
 2898SOL     OW 8753   5.349   3.173   3.020  0.1531 -0.5552  0.8030
 2898SOL    HW1 8754   5.287   3.235   2.982  0.9568  1.1831  2.2065
 2898SOL    HW2 8755   5.388   3.129   2.944 -1.2347 -0.1719 -0.1793
 2899SOL     OW 8756   4.923   4.028   0.664 -0.1117  0.5803 -0.0774
 2899SOL    HW1 8757   4.910   4.113   0.706 -3.1607 -0.4177  1.3173
 2899SOL    HW2 8758   4.941   3.968   0.736  1.6368 -0.0692 -1.0052
 2900SOL     OW 8759   2.572   1.199   0.752  0.0564 -0.2661  0.6121
 2900SOL    HW1 8760   2.657   1.158   0.734  0.6636  0.9966  0.5315
 2900SOL    HW2 8761   2.535   1.216   0.666 -0.0481 -0.3215  0.6454
 2901SOL     OW 8762   4.594   3.748   1.014  0.6828  0.4194 -0.2780
 2901SOL    HW1 8763   4.617   3.660   1.043  0.2752  0.2048 -0.5929
 2901SOL    HW2 8764   4.669   3.775   0.960  0.0721 -0.4154 -1.5867
 2902SOL     OW 8765   3.765   1.053   4.454  0.1524 -0.0310  0.0233
 2902SOL    HW1 8766   3.826   1.121   4.482  1.6165 -1.4114  0.3544
 2902SOL    HW2 8767   3.754   1.067   4.360  0.8542  0.3551 -0.0092
 2903SOL     OW 8768   3.994   1.053   1.034  0.2222  0.1479 -0.4488
 2903SOL    HW1 8769   3.940   1.112   0.982  0.4375 -0.0127 -0.8605
 2903SOL    HW2 8770   4.035   1.110   1.099  1.8354  0.8041 -1.9490
 2904SOL     OW 8771   2.090   0.499   1.381 -0.1752 -0.1312  0.2330
 2904SOL    HW1 8772   2.041   0.459   1.310 -0.0258  1.8148 -1.0529
 2904SOL    HW2 8773   2.027   0.558   1.423 -0.1231 -0.8929  1.4064
 2905SOL     OW 8774   1.718   2.906   0.225 -0.5102 -0.0216  0.3605
 2905SOL    HW1 8775   1.640   2.878   0.178  0.6467 -0.0157 -1.6636
 2905SOL    HW2 8776   1.751   2.827   0.267  0.4803 -0.9088 -1.9575
 2906SOL     OW 8777   2.835   0.491   2.598 -0.4446 -0.2730  0.0990
 2906SOL    HW1 8778   2.745   0.497   2.631 -0.4186  0.7018  0.0222
 2906SOL    HW2 8779   2.883   0.559   2.645 -0.0036 -0.0509 -0.6517
 2907SOL     OW 8780   3.110   0.290   0.282  0.4681 -0.8614 -0.7532
 2907SOL    HW1 8781   3.112   0.307   0.376  0.4023 -0.8820 -0.7476
 2907SOL    HW2 8782   3.018   0.300   0.258  0.5673 -0.3229 -0.9159
 2908SOL     OW 8783   3.916   2.866   0.559 -0.0565 -0.1478  0.9724
 2908SOL    HW1 8784   3.987   2.807   0.534  0.3417  0.3324  0.9414
 2908SOL    HW2 8785   3.960   2.936   0.609 -0.4112  0.5020  0.3827
 2909SOL     OW 8786   1.040   2.186   2.161 -0.2507  0.1409 -0.2673
 2909SOL    HW1 8787   1.097   2.262   2.178 -0.1278 -0.2015  0.9778
 2909SOL    HW2 8788   0.954   2.224   2.146  0.0502  0.5946 -0.8996
 2910SOL     OW 8789   5.166   4.597   1.143 -0.2591  0.2039  0.1623
 2910SOL    HW1 8790   5.092   4.652   1.167  0.0414  0.5050  0.4100
 2910SOL    HW2 8791   5.242   4.639   1.184 -0.0696 -0.5816  0.6295
 2911SOL     OW 8792   4.389   0.035   4.024  0.0451 -0.1577 -0.2044
 2911SOL    HW1 8793   4.482   0.052   4.012 -0.0559  0.5828  0.0212
 2911SOL    HW2 8794   4.371  -0.042   3.970  0.4481  0.6542 -1.5215
 2912SOL     OW 8795   4.558   3.584   3.079  0.5292  0.0026  0.5101
 2912SOL    HW1 8796   4.590   3.529   3.007 -0.2021 -1.6135  1.3584
 2912SOL    HW2 8797   4.638   3.610   3.125  1.0267  1.2554 -0.9702
 2913SOL     OW 8798   3.516   1.863   3.366  0.8318 -0.3659 -0.2650
 2913SOL    HW1 8799   3.569   1.879   3.288  1.0790  2.3172  0.3585
 2913SOL    HW2 8800   3.427   1.851   3.333  0.6803  2.1700 -0.9466
 2914SOL     OW 8801   4.578   5.144   3.980 -0.2838  0.5398  0.5046
 2914SOL    HW1 8802   4.671   5.142   3.957 -0.3051 -0.0323  0.4563
 2914SOL    HW2 8803   4.564   5.063   4.028 -0.7058  0.7466  0.7384
 2915SOL     OW 8804   5.150   0.726   2.828 -1.4476 -0.0636 -0.1108
 2915SOL    HW1 8805   5.164   0.693   2.739 -1.7453  0.7218 -0.4583
 2915SOL    HW2 8806   5.236   0.761   2.853 -1.2996 -0.5058  0.0102
 2916SOL     OW 8807   4.128   2.519   1.351  0.1271  0.5643  0.4982
 2916SOL    HW1 8808   4.168   2.586   1.295  1.7593  0.1369  1.1061
 2916SOL    HW2 8809   4.058   2.481   1.297 -0.3639  2.2404 -0.1149
 2917SOL     OW 8810   0.919   4.062   1.410  0.0941  0.2206  0.2419
 2917SOL    HW1 8811   0.970   4.031   1.336  0.3388  2.0873 -0.4360
 2917SOL    HW2 8812   0.907   3.985   1.466  0.0663 -1.1883 -1.6213
 2918SOL     OW 8813   4.031   0.779   2.803  0.2152 -0.1912 -0.1430
 2918SOL    HW1 8814   4.030   0.855   2.862 -1.1637 -0.7340  0.5891
 2918SOL    HW2 8815   3.938   0.765   2.782  0.5388 -1.1250 -0.9965
 2919SOL     OW 8816   1.135   4.065   3.800  0.0936 -0.1162 -0.2312
 2919SOL    HW1 8817   1.191   4.141   3.783  1.1440 -0.8928 -0.2927
 2919SOL    HW2 8818   1.051   4.088   3.758  1.2909 -0.1986 -2.8676
 2920SOL     OW 8819   4.723   3.049   3.775  0.7089  0.3013  0.2902
 2920SOL    HW1 8820   4.803   3.066   3.825  0.7710  0.9436 -0.0181
 2920SOL    HW2 8821   4.748   2.984   3.710  0.3455 -1.4546  1.8222
 2921SOL     OW 8822   0.287   2.470   0.734  0.2133  0.0531 -0.4460
 2921SOL    HW1 8823   0.213   2.486   0.793  0.5033  1.3425 -0.3895
 2921SOL    HW2 8824   0.364   2.481   0.790  0.4779  0.5549 -0.9017
 2922SOL     OW 8825   1.795   3.629   3.991  0.4327  0.0677  0.0699
 2922SOL    HW1 8826   1.829   3.639   4.080 -1.9745  0.9333  0.9746
 2922SOL    HW2 8827   1.768   3.717   3.965 -1.5316 -0.5925 -0.3376
 2923SOL     OW 8828   1.413   2.653   2.038 -0.0593 -0.2999 -0.1606
 2923SOL    HW1 8829   1.326   2.672   2.075  0.4133  3.0901 -0.4756
 2923SOL    HW2 8830   1.395   2.593   1.966 -2.2450  0.6930 -0.5296
 2924SOL     OW 8831   2.155   2.440   1.305  0.3236 -0.0468 -0.2738
 2924SOL    HW1 8832   2.173   2.534   1.300  0.8207  0.1134  2.6992
 2924SOL    HW2 8833   2.224   2.399   1.253  1.9764  1.1481  0.8781
 2925SOL     OW 8834   0.479   2.807   4.137 -0.0398 -0.3308  0.1630
 2925SOL    HW1 8835   0.410   2.830   4.199  0.1131 -0.8574  0.5428
 2925SOL    HW2 8836   0.525   2.734   4.179  1.1499  0.4223  0.2037
 2926SOL     OW 8837   2.819   4.919   0.241  0.2838 -0.1510  0.5672
 2926SOL    HW1 8838   2.765   4.983   0.286 -1.1805  0.0695 -1.3783
 2926SOL    HW2 8839   2.817   4.946   0.149  2.4594 -1.0495  0.1855
 2927SOL     OW 8840   0.938   2.699   3.486 -0.1138  0.5782  0.2658
 2927SOL    HW1 8841   1.032   2.691   3.499  0.0365 -0.6275 -1.3343
 2927SOL    HW2 8842   0.928   2.769   3.421 -0.1222 -0.9562 -1.4553
 2928SOL     OW 8843   0.872   2.464   0.327  0.1096 -0.4086 -0.9275
 2928SOL    HW1 8844   0.832   2.382   0.356 -0.0163  0.1712  0.6408
 2928SOL    HW2 8845   0.954   2.438   0.285  1.3705 -1.2797  1.7914
 2929SOL     OW 8846   4.905   3.525   3.461 -0.5646  0.1779 -0.4101
 2929SOL    HW1 8847   4.879   3.587   3.530 -2.1825  0.5461 -1.3040
 2929SOL    HW2 8848   4.939   3.580   3.391  0.9707 -0.1905 -0.0005
 2930SOL     OW 8849   3.163   2.563   4.117  0.2522  0.0250 -0.1240
 2930SOL    HW1 8850   3.140   2.650   4.085  0.8678  0.9464  1.7908
 2930SOL    HW2 8851   3.208   2.579   4.200  1.4619 -2.0642 -0.3007
 2931SOL     OW 8852   3.506   0.204   0.226 -0.3759 -0.2010  0.5561
 2931SOL    HW1 8853   3.592   0.165   0.239 -0.8173 -1.4031 -0.0212
 2931SOL    HW2 8854   3.524   0.297   0.210  0.9590 -0.7060 -1.2496
 2932SOL     OW 8855   3.103   2.678   1.127  0.2480 -0.0362  0.0234
 2932SOL    HW1 8856   3.151   2.759   1.144  2.3732 -0.9969 -1.0351
 2932SOL    HW2 8857   3.167   2.620   1.085 -1.2376 -2.2201  0.5953
 2933SOL     OW 8858   4.431   1.170   1.600 -0.3925  0.2456 -0.0879
 2933SOL    HW1 8859   4.400   1.210   1.682 -0.4884 -0.3946  0.1968
 2933SOL    HW2 8860   4.371   1.097   1.585 -0.6238  0.6091 -0.9601
 2934SOL     OW 8861   2.762   4.764   1.804  0.3465  0.0945  0.1419
 2934SOL    HW1 8862   2.743   4.804   1.889  3.7895 -1.3840  1.8201
 2934SOL    HW2 8863   2.852   4.787   1.786  1.4244 -3.7742 -0.4698
 2935SOL     OW 8864   4.239   5.027   2.811  0.4357  0.1414 -0.1930
 2935SOL    HW1 8865   4.154   5.070   2.801 -0.7397 -1.2412  2.6075
 2935SOL    HW2 8866   4.301   5.087   2.771 -1.5792  2.4288 -0.1486
 2936SOL     OW 8867   5.103   4.354   0.438 -0.2957  0.9971  0.4809
 2936SOL    HW1 8868   5.071   4.265   0.424 -0.4161  1.0751  0.2570
 2936SOL    HW2 8869   5.033   4.410   0.406 -0.7681  1.1861  1.7825
 2937SOL     OW 8870   0.578   2.173   3.203  0.5942  0.7869 -0.2646
 2937SOL    HW1 8871   0.665   2.145   3.175  0.5156  0.2745 -0.0147
 2937SOL    HW2 8872   0.593   2.257   3.247  1.1399  0.1504  0.8113
 2938SOL     OW 8873   0.497   4.485   1.045 -0.0475  0.4927 -0.7703
 2938SOL    HW1 8874   0.420   4.435   1.015 -1.3618  1.0570  1.4118
 2938SOL    HW2 8875   0.481   4.574   1.013 -0.4020  0.6413 -0.1971
 2939SOL     OW 8876   3.468   0.433   3.217  0.4134  0.0800  0.3669
 2939SOL    HW1 8877   3.449   0.430   3.311  1.6473  0.0104  0.6215
 2939SOL    HW2 8878   3.504   0.347   3.197  1.2952  0.4992  0.0895
 2940SOL     OW 8879   4.319   2.194   3.901  0.3241 -0.3892  0.1692
 2940SOL    HW1 8880   4.241   2.162   3.946  0.0040  0.3282  0.1453
 2940SOL    HW2 8881   4.357   2.117   3.860  1.2602 -1.2889  2.5702
 2941SOL     OW 8882   5.206   1.898   3.266  0.0212 -0.0927 -0.0402
 2941SOL    HW1 8883   5.293   1.858   3.272 -0.1396 -0.6872 -1.3581
 2941SOL    HW2 8884   5.190   1.934   3.353  0.8851 -1.4399  0.7009
 2942SOL     OW 8885   0.716   0.587   3.611  0.1646  0.0174 -0.2268
 2942SOL    HW1 8886   0.661   0.533   3.668 -1.2333  0.3868 -1.1929
 2942SOL    HW2 8887   0.732   0.667   3.662  2.1487 -1.1542  1.1638
 2943SOL     OW 8888   2.234   2.823   3.563 -0.5953  0.5752 -0.7839
 2943SOL    HW1 8889   2.178   2.776   3.625  1.0029 -0.3851  0.0057
 2943SOL    HW2 8890   2.224   2.915   3.588  0.0297  0.2107  0.9836
 2944SOL     OW 8891   1.437   3.240   3.373 -0.1658 -0.1231 -0.2518
 2944SOL    HW1 8892   1.416   3.327   3.407  0.4376 -0.0204 -0.1311
 2944SOL    HW2 8893   1.361   3.216   3.319 -1.1395 -0.2863  1.1281
 2945SOL     OW 8894   5.144   3.577   0.361 -0.4226 -0.7995  0.3097
 2945SOL    HW1 8895   5.103   3.565   0.276  1.1834 -2.9384 -0.2516
 2945SOL    HW2 8896   5.127   3.495   0.408  0.3704 -0.4229  1.3009
 2946SOL     OW 8897   2.640   0.885   0.714 -0.0795 -0.2039 -0.0091
 2946SOL    HW1 8898   2.605   0.797   0.700 -1.4658  0.4221 -0.6773
 2946SOL    HW2 8899   2.636   0.897   0.809 -0.4249 -0.6452  0.0353
 2947SOL     OW 8900   2.048   3.362   1.200 -0.1123 -0.1027 -0.2500
 2947SOL    HW1 8901   2.089   3.428   1.256  0.6332  0.0349 -0.9520
 2947SOL    HW2 8902   1.961   3.397   1.183 -0.3533 -0.1402  0.8088
 2948SOL     OW 8903   0.664   2.039   1.323 -0.0242 -0.1266 -0.3211
 2948SOL    HW1 8904   0.582   1.994   1.342 -0.7491  0.7608 -1.2663
 2948SOL    HW2 8905   0.652   2.075   1.235  1.0558  0.7172 -0.1439
 2949SOL     OW 8906   4.114   1.404   1.860 -0.4235 -0.3688  0.1622
 2949SOL    HW1 8907   4.089   1.496   1.870 -1.2489 -0.5557 -0.1424
 2949SOL    HW2 8908   4.078   1.378   1.775 -1.0292 -1.2443  0.6763
 2950SOL     OW 8909   4.495   5.016   0.724 -0.3683 -0.1054  0.1610
 2950SOL    HW1 8910   4.457   4.956   0.788 -0.2029 -0.4053 -0.0149
 2950SOL    HW2 8911   4.483   4.971   0.640 -0.2545  0.1148  0.0263
 2951SOL     OW 8912   3.984   0.833   3.845  0.5504 -0.0675 -0.4829
 2951SOL    HW1 8913   3.970   0.870   3.933 -0.5969  0.7242 -0.9701
 2951SOL    HW2 8914   3.914   0.871   3.792  2.3093  0.9568 -2.1953
 2952SOL     OW 8915   1.463   4.297   2.209 -0.3442 -0.0727 -0.5774
 2952SOL    HW1 8916   1.516   4.338   2.277  1.8250 -0.5342 -1.9114
 2952SOL    HW2 8917   1.397   4.247   2.258  0.2329  0.7438  1.1384
 2953SOL     OW 8918   2.263   4.921   0.943  0.2493  0.0033  0.0515
 2953SOL    HW1 8919   2.196   4.970   0.895 -1.0645 -0.2530  1.5535
 2953SOL    HW2 8920   2.261   4.834   0.904  2.2071  0.8722 -2.2494
 2954SOL     OW 8921   2.095   3.256   2.153 -0.2462  0.1592 -0.0905
 2954SOL    HW1 8922   2.180   3.218   2.130  0.1589  0.0678  1.4524
 2954SOL    HW2 8923   2.046   3.258   2.070  1.0353 -0.3360 -0.8880
 2955SOL     OW 8924   4.268   0.402   1.885  0.3788 -0.3912 -0.4712
 2955SOL    HW1 8925   4.291   0.365   1.800  1.7353 -0.6689  0.0002
 2955SOL    HW2 8926   4.280   0.497   1.873  2.9310 -0.5874  0.0560
 2956SOL     OW 8927   3.264   0.645   2.992 -0.8207  0.6134 -0.7173
 2956SOL    HW1 8928   3.311   0.722   2.962  0.1816  0.5613  0.6182
 2956SOL    HW2 8929   3.305   0.572   2.947 -0.6198  0.7046 -0.6819
 2957SOL     OW 8930   4.746   4.362   2.136  0.2067  0.3662  0.0074
 2957SOL    HW1 8931   4.752   4.308   2.215  1.9725  0.6380  0.0883
 2957SOL    HW2 8932   4.655   4.394   2.137 -0.6930 -2.0248  0.2857
 2958SOL     OW 8933   0.042   2.018   3.792  0.5079  0.0776 -0.2882
 2958SOL    HW1 8934   0.126   1.987   3.758 -0.1718 -2.4260  0.1589
 2958SOL    HW2 8935  -0.023   1.960   3.753 -0.7292  0.1104  1.5845
 2959SOL     OW 8936   1.106   0.954   3.146 -0.4647 -0.2089 -0.7445
 2959SOL    HW1 8937   1.156   0.908   3.214  0.0890 -0.3906 -1.2658
 2959SOL    HW2 8938   1.016   0.924   3.158 -0.2443 -0.8040 -0.5661
 2960SOL     OW 8939   4.022   5.010   1.328  0.1635 -0.1276  0.0459
 2960SOL    HW1 8940   3.931   5.004   1.356  0.3881  0.1062  0.8361
 2960SOL    HW2 8941   4.069   5.045   1.403  0.6265  1.5159 -0.9546
 2961SOL     OW 8942   5.056   4.600   1.867  0.3684 -0.4801  0.6279
 2961SOL    HW1 8943   5.043   4.516   1.822  3.5921  0.0286 -1.5676
 2961SOL    HW2 8944   5.011   4.664   1.811  2.6833 -0.1218 -0.9873
 2962SOL     OW 8945   3.806   2.033   0.390 -0.0166  0.6463 -0.1899
 2962SOL    HW1 8946   3.886   2.027   0.338  0.4602  0.1590  0.5745
 2962SOL    HW2 8947   3.776   1.943   0.399 -0.0797  0.7211  0.3853
 2963SOL     OW 8948   0.635   2.415   3.283  0.5703 -0.3980 -0.3120
 2963SOL    HW1 8949   0.620   2.459   3.366 -2.0494 -1.2617 -0.2219
 2963SOL    HW2 8950   0.614   2.481   3.216 -0.1087 -0.5161 -0.2235
 2964SOL     OW 8951   3.870   5.142   3.602  0.5642  0.2180 -0.6380
 2964SOL    HW1 8952   3.881   5.128   3.696 -0.6624  1.7368 -0.2390
 2964SOL    HW2 8953   3.957   5.168   3.571  0.7211  0.8106  0.2800
 2965SOL     OW 8954   0.464   0.411   4.271 -0.0603 -0.2688  0.0036
 2965SOL    HW1 8955   0.528   0.461   4.220 -0.8228  1.0967  0.3457
 2965SOL    HW2 8956   0.502   0.406   4.359 -0.6687  1.0693  0.3642
 2966SOL     OW 8957   4.092   3.895   2.781  0.2169  0.0496  0.2248
 2966SOL    HW1 8958   4.094   3.890   2.685  0.5056  2.2623  0.0747
 2966SOL    HW2 8959   4.104   3.804   2.810 -0.4908 -0.7436 -1.8236
 2967SOL     OW 8960   0.946   4.435   3.700  0.7487  0.3921 -0.2650
 2967SOL    HW1 8961   0.932   4.340   3.695 -0.1164  0.5036 -0.2127
 2967SOL    HW2 8962   1.036   4.448   3.670  0.8256 -0.4312 -0.4148
 2968SOL     OW 8963   4.926   0.590   1.611  0.1294  0.5020  0.2609
 2968SOL    HW1 8964   4.979   0.511   1.600  0.3511  0.8254 -1.0534
 2968SOL    HW2 8965   4.974   0.643   1.674 -0.1507 -0.4990  1.3720
 2969SOL     OW 8966   3.325   4.051   2.069 -0.0615 -0.0210 -0.1514
 2969SOL    HW1 8967   3.329   3.959   2.043  0.9916 -0.3994  1.2251
 2969SOL    HW2 8968   3.361   4.099   1.995 -2.1570 -0.5157 -1.5826
 2970SOL     OW 8969   1.146   0.431   2.154 -0.3670  0.0982 -0.4026
 2970SOL    HW1 8970   1.065   0.425   2.104 -1.0883  0.1315  0.7267
 2970SOL    HW2 8971   1.195   0.352   2.129 -0.6380  0.1862 -1.2485
 2971SOL     OW 8972   2.088   2.546   2.436 -0.0447 -0.0804  0.2375
 2971SOL    HW1 8973   2.019   2.572   2.375 -0.1030 -0.0466  0.3170
 2971SOL    HW2 8974   2.072   2.599   2.515  1.4342  1.6223 -0.5417
 2972SOL     OW 8975   5.305   0.246   3.888 -0.0011 -0.5224 -0.2322
 2972SOL    HW1 8976   5.242   0.179   3.863  0.4743 -1.0637  0.0037
 2972SOL    HW2 8977   5.254   0.328   3.890 -0.7959 -1.0202  0.4297
 2973SOL     OW 8978   5.082   2.117   4.295  0.1423 -0.0079 -0.0364
 2973SOL    HW1 8979   5.014   2.054   4.315 -1.5198  2.0352  1.1974
 2973SOL    HW2 8980   5.055   2.156   4.212  0.2246  0.2574  0.0590
 2974SOL     OW 8981   4.720   2.767   1.090 -0.2077  0.0518  0.9852
 2974SOL    HW1 8982   4.805   2.724   1.094 -0.4347 -0.2886  2.9316
 2974SOL    HW2 8983   4.657   2.695   1.085 -0.4805  0.2202  1.8984
 2975SOL     OW 8984   0.147   0.079   3.003  0.0334  0.4472  0.1277
 2975SOL    HW1 8985   0.096   0.119   2.931 -1.3953 -0.7463  0.4251
 2975SOL    HW2 8986   0.238   0.093   2.979 -0.4000 -0.1776 -2.0862
 2976SOL     OW 8987   3.798   0.233   2.427 -0.3027 -0.0926  0.2066
 2976SOL    HW1 8988   3.803   0.211   2.519 -0.1579 -0.2698  0.1568
 2976SOL    HW2 8989   3.711   0.205   2.399 -0.8704  1.1695  0.6031
 2977SOL     OW 8990   0.122   1.692   0.606 -0.1614  0.1252 -0.2254
 2977SOL    HW1 8991   0.033   1.727   0.613 -1.1759 -2.6063  2.5322
 2977SOL    HW2 8992   0.145   1.666   0.695  2.1301 -2.1957 -1.3686
 2978SOL     OW 8993   4.190   1.396   4.316 -0.0963  0.0419  0.3775
 2978SOL    HW1 8994   4.159   1.469   4.262 -1.3276 -0.3898  0.4746
 2978SOL    HW2 8995   4.218   1.330   4.253  0.3532  0.3111  0.2882
 2979SOL     OW 8996   1.405   2.607   0.451 -0.5141 -0.2470 -0.2155
 2979SOL    HW1 8997   1.410   2.527   0.397  0.3022  0.0184 -0.5573
 2979SOL    HW2 8998   1.314   2.635   0.443  0.0523  1.1594 -3.5431
 2980SOL     OW 8999   3.244   2.332   2.373 -0.2972  0.0406  0.0236
 2980SOL    HW1 9000   3.165   2.386   2.379  0.1543  0.9548 -1.5698
 2980SOL    HW2 9001   3.237   2.288   2.289  1.9934  2.0655 -1.3601
 2981SOL     OW 9002   1.686   0.176   0.011 -0.2812  0.5849  0.6209
 2981SOL    HW1 9003   1.593   0.162  -0.008  0.0319 -0.1871 -0.3634
 2981SOL    HW2 9004   1.699   0.270  -0.005 -0.9446  0.7584  1.0406
 2982SOL     OW 9005   1.776   1.194   1.341 -0.4371  0.5369  0.8411
 2982SOL    HW1 9006   1.836   1.167   1.410 -0.6132 -0.0231  0.7803
 2982SOL    HW2 9007   1.689   1.168   1.372 -0.6557  1.2971  0.9079
 2983SOL     OW 9008   0.537   3.834   2.086  0.1629  0.4467  0.9108
 2983SOL    HW1 9009   0.588   3.755   2.101  2.1798  1.8186  1.7169
 2983SOL    HW2 9010   0.458   3.823   2.139  0.2812 -1.0952  0.7958
 2984SOL     OW 9011   2.932   0.707   2.769 -0.4230 -0.2955  0.5921
 2984SOL    HW1 9012   2.937   0.726   2.863 -0.9021  1.0458  0.3671
 2984SOL    HW2 9013   2.955   0.790   2.727  3.1904 -1.6651 -0.5449
 2985SOL     OW 9014   3.410   4.361   0.567  0.2119  0.6998  0.2400
 2985SOL    HW1 9015   3.443   4.417   0.636  1.8172 -0.1733  0.2359
 2985SOL    HW2 9016   3.351   4.417   0.516 -0.9381  1.3865  2.2102
 2986SOL     OW 9017   3.760   2.319   3.346  0.6450 -0.1782 -0.6295
 2986SOL    HW1 9018   3.675   2.330   3.389 -0.3477 -3.2330 -1.5401
 2986SOL    HW2 9019   3.821   2.367   3.402 -1.6300  2.2831 -0.0299
 2987SOL     OW 9020   2.671   3.681   0.099 -0.1532 -0.3355  0.3538
 2987SOL    HW1 9021   2.595   3.644   0.144 -1.3891  0.9851 -0.5609
 2987SOL    HW2 9022   2.739   3.684   0.167 -1.2074 -0.6461  1.4753
 2988SOL     OW 9023   4.565   2.605   1.412 -0.0948  0.4811 -0.6913
 2988SOL    HW1 9024   4.657   2.611   1.439  0.3285 -0.3046 -1.8971
 2988SOL    HW2 9025   4.529   2.534   1.465  0.3224 -0.0320 -1.0873
 2989SOL     OW 9026   5.002   1.221   2.515 -0.3899  0.1554 -0.1400
 2989SOL    HW1 9027   5.041   1.163   2.580  1.9170 -0.3507 -1.8419
 2989SOL    HW2 9028   4.908   1.215   2.531 -0.0516 -1.6911  1.6554
 2990SOL     OW 9029   5.142   2.831   2.773  0.1660  0.5799 -0.4646
 2990SOL    HW1 9030   5.224   2.853   2.728  0.8291  0.3750  0.6146
 2990SOL    HW2 9031   5.077   2.889   2.733  0.6385  0.1583 -1.9382
 2991SOL     OW 9032   2.274   0.673   4.255 -0.1709 -0.1411  0.0321
 2991SOL    HW1 9033   2.312   0.704   4.173  1.9837  1.9438  1.6487
 2991SOL    HW2 9034   2.282   0.578   4.251  2.4509  0.0280 -1.1078
 2992SOL     OW 9035   3.221   2.357   1.682 -0.0874 -0.4475  0.0664
 2992SOL    HW1 9036   3.303   2.393   1.649 -0.0611  0.1878  0.7769
 2992SOL    HW2 9037   3.155   2.423   1.660 -0.3906 -0.9110 -0.4194
 2993SOL     OW 9038   0.907   2.753   2.285  0.4392 -0.3505  0.0824
 2993SOL    HW1 9039   0.951   2.674   2.316 -0.1815 -1.0340 -0.7578
 2993SOL    HW2 9040   0.884   2.735   2.194 -0.0355  0.6614 -0.0206
 2994SOL     OW 9041   2.551   0.388   1.324 -0.0298  0.6343  0.0330
 2994SOL    HW1 9042   2.538   0.459   1.261 -0.2601  0.0848 -0.5485
 2994SOL    HW2 9043   2.508   0.312   1.284  1.6226 -0.2666 -0.1188
 2995SOL     OW 9044   1.498   3.501   1.178  0.3445  0.1418 -0.6215
 2995SOL    HW1 9045   1.452   3.562   1.121 -0.3393 -1.2522 -1.6309
 2995SOL    HW2 9046   1.434   3.432   1.196  1.2864 -0.6023 -0.0365
 2996SOL     OW 9047   0.895   4.756   0.846  0.4083 -0.2196 -0.5182
 2996SOL    HW1 9048   0.872   4.680   0.793  0.5263  0.7954 -2.0687
 2996SOL    HW2 9049   0.878   4.728   0.936 -0.4089 -1.7636 -1.1190
 2997SOL     OW 9050   3.428   2.103   3.844  0.1388  0.6322  0.5147
 2997SOL    HW1 9051   3.469   2.171   3.898 -1.0634  0.7437  1.3430
 2997SOL    HW2 9052   3.477   2.023   3.866  0.8552  1.0201  0.3644
 2998SOL     OW 9053   4.896   2.379   1.144 -0.0619 -0.0566 -0.0102
 2998SOL    HW1 9054   4.863   2.309   1.087  0.3111 -0.4417  0.2327
 2998SOL    HW2 9055   4.868   2.352   1.232  0.0670  0.1133  0.0818
 2999SOL     OW 9056   3.603   0.541   2.988  0.0050 -0.3395 -0.0757
 2999SOL    HW1 9057   3.546   0.502   3.054 -1.1871 -0.9026 -1.3979
 2999SOL    HW2 9058   3.552   0.539   2.907  1.9520 -1.0097 -1.3503
 3000SOL     OW 9059   1.756   0.112   0.930  0.0237  0.1784 -0.0213
 3000SOL    HW1 9060   1.722   0.100   1.019 -0.5047 -0.7781 -0.3357
 3000SOL    HW2 9061   1.684   0.154   0.883 -0.3399 -0.8510 -0.4106
 3001SOL     OW 9062   4.244   1.076   3.916  0.3631  0.5341 -0.1323
 3001SOL    HW1 9063   4.278   0.990   3.894 -1.4165 -0.0976 -0.5720
 3001SOL    HW2 9064   4.179   1.060   3.984  0.2979  1.5899  0.0791
 3002SOL     OW 9065   3.091   3.540   3.062 -0.5633  0.0920  0.4764
 3002SOL    HW1 9066   3.053   3.495   2.987  0.2213  0.3738 -0.0965
 3002SOL    HW2 9067   3.020   3.540   3.127 -0.4127 -2.5407  0.7628
 3003SOL     OW 9068   4.404   4.627   3.181  0.7570  0.3592 -0.1340
 3003SOL    HW1 9069   4.399   4.630   3.086 -1.5168  0.3827 -0.0658
 3003SOL    HW2 9070   4.467   4.557   3.199  0.4884 -0.3118 -1.6553
 3004SOL     OW 9071   1.619   4.189   2.014 -0.2876  0.1329 -0.1605
 3004SOL    HW1 9072   1.563   4.214   2.088 -1.3425 -1.3901 -0.3969
 3004SOL    HW2 9073   1.660   4.107   2.042  1.1401  0.7375 -0.3755
 3005SOL     OW 9074   3.305   0.258   2.733  0.2979  0.2893 -0.3242
 3005SOL    HW1 9075   3.230   0.313   2.756  0.6409 -0.5026  3.3982
 3005SOL    HW2 9076   3.266   0.180   2.692 -1.0337 -0.1958  1.7270
 3006SOL     OW 9077   4.310   0.190   3.834  0.5205 -0.4650  0.0464
 3006SOL    HW1 9078   4.334   0.120   3.894 -1.2454 -2.4808 -1.4240
 3006SOL    HW2 9079   4.214   0.192   3.837  0.3261 -0.9661 -2.9702
 3007SOL     OW 9080   3.066   4.887   2.433  0.1135  0.3346  0.3504
 3007SOL    HW1 9081   3.030   4.976   2.433  1.6237  1.0104  1.3767
 3007SOL    HW2 9082   3.152   4.896   2.392 -0.2972 -0.9491 -0.8434
 3008SOL     OW 9083   2.514   1.963   3.347  0.0544  0.3699 -0.3296
 3008SOL    HW1 9084   2.470   2.021   3.284 -0.0420 -0.5205 -1.0965
 3008SOL    HW2 9085   2.540   2.021   3.418  0.3087  1.4403 -1.2583
 3009SOL     OW 9086   2.552   4.715   1.583 -0.0830 -0.0199 -0.0135
 3009SOL    HW1 9087   2.499   4.794   1.576 -1.2103 -0.8358 -1.3526
 3009SOL    HW2 9088   2.616   4.735   1.651 -0.3677  2.0069 -0.2682
 3010SOL     OW 9089   3.940   3.850   3.115 -0.1924  0.4556  0.1272
 3010SOL    HW1 9090   4.015   3.815   3.162 -0.7610  1.1401  1.6144
 3010SOL    HW2 9091   3.900   3.912   3.177 -2.1644 -0.1349 -0.4769
 3011SOL     OW 9092   0.963   2.348   1.422 -0.5066  0.2931  0.1159
 3011SOL    HW1 9093   0.872   2.322   1.432 -0.4495 -0.2020 -0.5799
 3011SOL    HW2 9094   1.013   2.281   1.469 -0.2915 -1.5627 -2.5436
 3012SOL     OW 9095   5.168   3.923   2.815 -0.1642 -0.1719  0.2209
 3012SOL    HW1 9096   5.207   3.837   2.798  2.8865  1.0914  0.2374
 3012SOL    HW2 9097   5.212   3.954   2.893 -0.2569  1.9308 -0.5104
 3013SOL     OW 9098   2.969   2.438   2.383 -0.2266 -0.1129  0.1126
 3013SOL    HW1 9099   2.947   2.498   2.454 -0.8341  3.0142 -2.4652
 3013SOL    HW2 9100   2.918   2.359   2.401 -0.7459  0.7570  2.8291
 3014SOL     OW 9101   2.226   2.516   2.049  0.2642 -0.2870  0.2776
 3014SOL    HW1 9102   2.254   2.523   2.140  1.0262 -1.5001  0.1447
 3014SOL    HW2 9103   2.149   2.573   2.044  1.2688  1.2264  1.2245
 3015SOL     OW 9104   1.125   0.518   1.837  0.3594 -0.0560  0.6713
 3015SOL    HW1 9105   1.210   0.477   1.853  0.4100  0.0603  0.7021
 3015SOL    HW2 9106   1.137   0.609   1.864  0.8358  0.4782 -1.1789
 3016SOL     OW 9107   1.918   0.820   0.749  0.0853 -0.2136 -0.2669
 3016SOL    HW1 9108   1.823   0.824   0.740  0.0360 -0.2871  0.1640
 3016SOL    HW2 9109   1.934   0.859   0.835  0.3403 -1.3700  0.2252
 3017SOL     OW 9110   3.860   4.329   0.972 -0.2113  0.0762 -0.2122
 3017SOL    HW1 9111   3.775   4.345   1.012  0.1011  2.1244 -0.2665
 3017SOL    HW2 9112   3.842   4.330   0.878 -0.5371 -2.2415 -0.2168
 3018SOL     OW 9113   3.041   2.970   1.497 -0.8053 -0.0004  0.6396
 3018SOL    HW1 9114   2.950   2.946   1.475 -0.5373  0.1988 -0.7542
 3018SOL    HW2 9115   3.069   3.026   1.425  1.0434 -1.5677  0.0620
 3019SOL     OW 9116   1.927   3.170   3.128 -1.2571 -0.5307 -0.3608
 3019SOL    HW1 9117   1.946   3.120   3.049  0.1456  0.1251 -0.4720
 3019SOL    HW2 9118   1.985   3.133   3.195 -2.2126 -0.8817  0.2937
 3020SOL     OW 9119   2.070   1.956   2.057  0.2909 -0.0419  0.1221
 3020SOL    HW1 9120   2.087   2.007   1.978  0.4027  0.9720  0.7848
 3020SOL    HW2 9121   2.014   2.013   2.110 -2.4899 -1.9229 -0.5505
 3021SOL     OW 9122   5.397   0.349   0.000  0.4054  0.6010 -0.5093
 3021SOL    HW1 9123   5.371   0.278  -0.059 -2.0985  1.1950 -0.2128
 3021SOL    HW2 9124   5.330   0.416  -0.011 -0.6844  0.4498  3.4754
 3022SOL     OW 9125   0.360   2.771   3.897 -0.5004 -0.9064  0.2778
 3022SOL    HW1 9126   0.372   2.779   3.992 -0.2630  0.6005  0.1472
 3022SOL    HW2 9127   0.355   2.861   3.866 -1.5871 -1.3812 -1.0333
 3023SOL     OW 9128   5.109   2.838   3.554 -0.3503  0.1931 -0.8761
 3023SOL    HW1 9129   5.133   2.928   3.533  1.1810 -0.1837 -0.8661
 3023SOL    HW2 9130   5.192   2.791   3.555 -0.7814 -0.6714  1.9598
 3024SOL     OW 9131   0.908   2.083   3.479  0.2865  0.5508  0.3115
 3024SOL    HW1 9132   0.957   2.037   3.411  0.7386  1.2412  0.1550
 3024SOL    HW2 9133   0.895   2.171   3.444  2.7348  1.7480  2.0857
 3025SOL     OW 9134   5.463   2.369   1.697 -0.2873  1.0427  0.1277
 3025SOL    HW1 9135   5.377   2.349   1.733 -0.6031  0.1285 -1.0298
 3025SOL    HW2 9136   5.444   2.422   1.619  0.1909  0.9358 -0.0651
 3026SOL     OW 9137   3.072   0.907   0.049  0.4468  0.4416 -0.3458
 3026SOL    HW1 9138   3.000   0.962   0.019 -2.1264 -2.2491  0.4056
 3026SOL    HW2 9139   3.089   0.937   0.138 -1.6467 -0.4789  0.4448
 3027SOL     OW 9140   0.603   3.393   3.797 -0.0993  0.1614 -0.0296
 3027SOL    HW1 9141   0.580   3.471   3.848 -0.6525 -1.0481  1.6562
 3027SOL    HW2 9142   0.682   3.359   3.840 -1.1280 -1.4234  0.6904
 3028SOL     OW 9143   4.496   0.770   3.603  0.0431 -0.5591 -0.2866
 3028SOL    HW1 9144   4.496   0.820   3.522  1.5484 -1.7444 -1.0673
 3028SOL    HW2 9145   4.576   0.797   3.648 -1.0509  0.5043  1.1202
 3029SOL     OW 9146   2.622   3.366   2.321 -0.0283 -0.1912 -0.4404
 3029SOL    HW1 9147   2.632   3.429   2.249  1.3029 -0.8307 -0.8376
 3029SOL    HW2 9148   2.527   3.361   2.334 -0.1725  2.8850  0.5335
 3030SOL     OW 9149   4.491   5.037   3.732  0.6915 -0.0062  0.0505
 3030SOL    HW1 9150   4.554   5.085   3.678 -0.9245  2.6253  0.3215
 3030SOL    HW2 9151   4.476   5.094   3.807  0.3746 -2.0678  1.6383
 3031SOL     OW 9152   2.134   4.225   1.719  0.0133 -0.1915  0.5006
 3031SOL    HW1 9153   2.098   4.145   1.756  0.9273 -1.2583 -0.7877
 3031SOL    HW2 9154   2.179   4.267   1.792  1.7298 -2.2018  0.7095
 3032SOL     OW 9155   1.427   0.255   2.836 -0.0430  0.1025 -0.4467
 3032SOL    HW1 9156   1.519   0.261   2.810 -0.4127  1.5572 -1.6035
 3032SOL    HW2 9157   1.378   0.277   2.756 -1.5372 -3.4089 -0.6891
 3033SOL     OW 9158   0.995   2.059   1.914 -0.2531  0.2327 -0.4278
 3033SOL    HW1 9159   1.035   1.972   1.908  0.3400  0.4151  0.6423
 3033SOL    HW2 9160   1.026   2.094   1.998 -1.1322  1.1536 -0.4695
 3034SOL     OW 9161   0.686   4.951   2.028  0.5601  1.1280  0.1476
 3034SOL    HW1 9162   0.653   4.998   1.952 -0.0232  2.4071  1.1428
 3034SOL    HW2 9163   0.611   4.902   2.061  0.6665  1.0028  0.2061
 3035SOL     OW 9164   5.063   4.333   2.288 -0.2883  0.0029 -0.2905
 3035SOL    HW1 9165   5.001   4.261   2.277 -0.6652  0.3399 -0.4304
 3035SOL    HW2 9166   5.130   4.317   2.223 -0.3144 -0.2774 -0.2508
 3036SOL     OW 9167   3.982   3.397   1.979  0.8207  0.1493 -0.2236
 3036SOL    HW1 9168   3.983   3.418   1.886  1.6809  2.1041  0.1606
 3036SOL    HW2 9169   4.072   3.411   2.008  0.4904 -0.0483  0.9650
 3037SOL     OW 9170   2.291   1.786   3.795 -0.4280 -0.6510 -0.0202
 3037SOL    HW1 9171   2.311   1.703   3.751 -0.5373  0.0270 -1.4203
 3037SOL    HW2 9172   2.201   1.776   3.825  0.3629 -1.9519  2.0874
 3038SOL     OW 9173   5.154   0.011   3.725 -0.4236 -0.3171  0.5929
 3038SOL    HW1 9174   5.111   0.088   3.688 -0.7830  0.0912  1.7850
 3038SOL    HW2 9175   5.226  -0.008   3.665 -0.1179  1.1645  0.4395
 3039SOL     OW 9176   0.687   1.047   3.535 -0.2579 -0.0524 -0.5529
 3039SOL    HW1 9177   0.746   1.043   3.460  2.2877  0.0387  1.3241
 3039SOL    HW2 9178   0.661   1.139   3.540  1.7857  0.5340  0.2213
 3040SOL     OW 9179   1.404   2.953   1.498 -0.2086 -0.3473  0.1037
 3040SOL    HW1 9180   1.417   2.990   1.411 -0.6031 -0.3864  0.0293
 3040SOL    HW2 9181   1.485   2.906   1.517 -0.2392 -0.5870 -0.3615
 3041SOL     OW 9182   4.584   3.605   0.335 -0.3689  0.5859 -0.1404
 3041SOL    HW1 9183   4.601   3.698   0.320 -1.3496  0.8119  0.0826
 3041SOL    HW2 9184   4.499   3.589   0.294  0.1550 -0.4032 -0.8787
 3042SOL     OW 9185   3.032   3.677   0.553 -0.2337 -0.0674  0.0118
 3042SOL    HW1 9186   2.939   3.669   0.572 -0.1683  0.7301  0.7225
 3042SOL    HW2 9187   3.073   3.691   0.639  0.6606 -1.3431 -0.1690
 3043SOL     OW 9188   2.863   4.102   4.228  0.1788  0.0471 -0.2164
 3043SOL    HW1 9189   2.881   4.047   4.151  1.4550 -2.9311  1.9868
 3043SOL    HW2 9190   2.921   4.177   4.218  0.8386 -0.6216 -1.8127
 3044SOL     OW 9191   1.830   3.438   1.535  0.4956  0.4289 -0.0739
 3044SOL    HW1 9192   1.790   3.397   1.458  0.8335 -2.2190  1.0753
 3044SOL    HW2 9193   1.756   3.464   1.589  0.2862  1.0648 -0.6426
 3045SOL     OW 9194   4.594   1.769   4.165  0.3809  0.8465  0.1309
 3045SOL    HW1 9195   4.637   1.783   4.081 -0.3044  0.5279 -0.2848
 3045SOL    HW2 9196   4.637   1.692   4.202  0.6097  0.9234  0.0218
 3046SOL     OW 9197   3.509   1.828   0.934  0.2791  0.1989  0.0025
 3046SOL    HW1 9198   3.602   1.825   0.956  0.1742  0.9291  0.5915
 3046SOL    HW2 9199   3.495   1.918   0.904 -0.5690  0.6326  1.5609
 3047SOL     OW 9200   0.964   1.188   1.318 -0.3123 -0.1816  0.2167
 3047SOL    HW1 9201   1.041   1.138   1.344 -1.0248 -1.5618 -0.1676
 3047SOL    HW2 9202   0.938   1.236   1.396  0.8474  0.2087  0.3841
 3048SOL     OW 9203   1.715   2.192   3.916 -0.2223  0.2278 -0.1729
 3048SOL    HW1 9204   1.765   2.272   3.935 -1.0836  0.5766  0.7543
 3048SOL    HW2 9205   1.727   2.178   3.822  0.3714  1.1557 -0.2538
 3049SOL     OW 9206   2.171   4.320   4.279  0.1045  0.1424  0.5615
 3049SOL    HW1 9207   2.087   4.280   4.305  0.2717 -0.9024 -0.4361
 3049SOL    HW2 9208   2.234   4.248   4.285  0.5463  0.4112 -0.6061
 3050SOL     OW 9209   2.771   1.297   3.333  0.0650  0.5195  1.2913
 3050SOL    HW1 9210   2.795   1.389   3.344  0.7520  0.4987  0.1632
 3050SOL    HW2 9211   2.708   1.297   3.262 -0.9202  0.2327  2.1439
 3051SOL     OW 9212   4.032   3.909   2.510  0.0130 -0.6525 -0.1259
 3051SOL    HW1 9213   3.948   3.874   2.481 -0.4566  0.5796 -0.3221
 3051SOL    HW2 9214   4.096   3.876   2.446 -0.7500  0.6378 -1.6280
 3052SOL     OW 9215   1.109   1.783   4.167  0.4061  0.0386  0.4043
 3052SOL    HW1 9216   1.128   1.835   4.089  3.4699 -2.9576 -1.1224
 3052SOL    HW2 9217   1.125   1.842   4.240  0.7032  2.0431 -1.1910
 3053SOL     OW 9218   4.625   4.241   3.548  0.2592  0.0882  0.2331
 3053SOL    HW1 9219   4.625   4.331   3.581  0.0758  0.5005 -0.8546
 3053SOL    HW2 9220   4.714   4.209   3.565  2.0889  2.2292 -3.8831
 3054SOL     OW 9221   1.784   4.515   4.138 -0.3138 -0.3589 -0.3002
 3054SOL    HW1 9222   1.797   4.571   4.215 -1.5031 -1.2516  0.5830
 3054SOL    HW2 9223   1.824   4.564   4.066  3.1325 -0.5692  1.2405
 3055SOL     OW 9224   4.695   4.986   1.847 -0.5685 -0.3873  0.0976
 3055SOL    HW1 9225   4.729   5.043   1.779  1.3263  0.5440  1.7137
 3055SOL    HW2 9226   4.772   4.943   1.883 -1.5827 -1.3837  1.1887
 3056SOL     OW 9227   3.737   0.295   2.908 -0.7720 -0.0843 -0.7419
 3056SOL    HW1 9228   3.757   0.386   2.928  0.7859 -0.7058  0.7385
 3056SOL    HW2 9229   3.794   0.274   2.833  1.2143 -0.6650  0.8546
 3057SOL     OW 9230   4.894   3.896   3.273  0.0428 -0.4427 -0.4798
 3057SOL    HW1 9231   4.921   3.832   3.207  0.3323 -0.3218 -0.4800
 3057SOL    HW2 9232   4.842   3.960   3.224 -0.6623 -0.9374 -0.3909
 3058SOL     OW 9233   2.307   4.908   3.288  0.0047  0.3750  0.0518
 3058SOL    HW1 9234   2.296   4.883   3.196 -0.2404  1.1308 -0.1250
 3058SOL    HW2 9235   2.330   4.826   3.332 -3.6294 -0.8555 -0.0085
 3059SOL     OW 9236   3.868   2.500   0.141 -0.1228 -0.2431  0.2426
 3059SOL    HW1 9237   3.928   2.543   0.203  0.7219 -0.8466 -0.1354
 3059SOL    HW2 9238   3.837   2.571   0.085  1.1504 -0.0748 -0.2823
 3060SOL     OW 9239   2.390   0.857   0.209  0.1861 -0.2958 -0.3706
 3060SOL    HW1 9240   2.350   0.930   0.162 -0.9420 -0.3413  0.5016
 3060SOL    HW2 9241   2.427   0.896   0.288 -1.1683 -0.7604  0.5297
 3061SOL     OW 9242   0.147   1.311   3.836  0.2166  0.3175  0.2333
 3061SOL    HW1 9243   0.230   1.358   3.845 -0.4375  1.7012 -0.6462
 3061SOL    HW2 9244   0.135   1.301   3.741 -0.9051  0.6562  0.3263
 3062SOL     OW 9245   4.823   2.998   3.284  0.1126  0.1706  0.4340
 3062SOL    HW1 9246   4.830   3.006   3.189 -1.0591  1.2766  0.4176
 3062SOL    HW2 9247   4.870   3.074   3.318  1.4583 -0.7852  0.8070
 3063SOL     OW 9248   0.881   4.291   4.442 -0.9814  0.9516  0.6014
 3063SOL    HW1 9249   0.933   4.367   4.414 -0.3737  1.0642  1.9627
 3063SOL    HW2 9250   0.826   4.324   4.513 -4.4625  1.3359 -2.0218
 3064SOL     OW 9251   0.066   4.067   0.079 -0.1076 -0.2372 -0.0371
 3064SOL    HW1 9252   0.032   3.980   0.103  0.2336  0.1163  1.8821
 3064SOL    HW2 9253  -0.013   4.120   0.064 -0.3628 -0.3867  0.7172
 3065SOL     OW 9254   2.024   4.539   2.692  0.2990  0.2514 -0.2383
 3065SOL    HW1 9255   1.980   4.604   2.638  0.2391 -0.6919 -1.3743
 3065SOL    HW2 9256   2.006   4.456   2.648  0.8576 -0.4653  0.8487
 3066SOL     OW 9257   5.260   0.715   1.382  0.4100  0.3494  0.2935
 3066SOL    HW1 9258   5.304   0.685   1.302  2.0948  1.8061  0.6046
 3066SOL    HW2 9259   5.168   0.722   1.358  0.7363 -0.2288 -1.2178
 3067SOL     OW 9260   0.433   3.107   1.383 -0.0106 -0.3046  0.0732
 3067SOL    HW1 9261   0.445   3.012   1.389  0.5839 -0.2632 -0.3179
 3067SOL    HW2 9262   0.522   3.141   1.373 -0.1508  0.3569  1.0071
 3068SOL     OW 9263   3.384   3.972   4.057 -0.4298 -0.1908  0.4277
 3068SOL    HW1 9264   3.427   4.012   3.981 -1.6679 -0.0765 -0.2429
 3068SOL    HW2 9265   3.325   4.039   4.089 -0.4345 -0.4942  1.0668
 3069SOL     OW 9266   1.980   3.463   1.787 -0.8857  0.3533  0.1913
 3069SOL    HW1 9267   1.948   3.445   1.699 -0.1233 -0.1359 -0.0000
 3069SOL    HW2 9268   2.006   3.555   1.785  0.7651 -0.0895 -0.6446
 3070SOL     OW 9269   0.146   4.016   1.152 -0.2070 -0.2201 -0.3678
 3070SOL    HW1 9270   0.200   4.018   1.232 -2.2701 -0.6428  1.1171
 3070SOL    HW2 9271   0.201   3.973   1.087  1.0639 -1.1221  1.2171
 3071SOL     OW 9272   2.426   3.118   3.255 -0.3487  0.3671 -0.3830
 3071SOL    HW1 9273   2.412   3.196   3.201 -0.6896  0.1844 -0.5654
 3071SOL    HW2 9274   2.428   3.151   3.344 -1.0883  0.5204 -0.4148
 3072SOL     OW 9275   5.331   0.764   4.459 -0.3884 -0.2617 -1.0513
 3072SOL    HW1 9276   5.260   0.828   4.468  0.2659  0.4404 -0.8932
 3072SOL    HW2 9277   5.290   0.690   4.413 -0.8529  0.7484 -2.3103
 3073SOL     OW 9278   1.077   1.597   0.283 -0.6163 -0.1248  0.7262
 3073SOL    HW1 9279   1.074   1.668   0.220  0.2721 -2.7607 -2.5775
 3073SOL    HW2 9280   1.154   1.615   0.337 -0.0744  1.1131 -0.4229
 3074SOL     OW 9281   2.221   0.678   2.135  0.1130  0.4823  0.5801
 3074SOL    HW1 9282   2.185   0.655   2.221  0.2620  1.4336  0.9156
 3074SOL    HW2 9283   2.315   0.662   2.144  0.0417 -0.0684  0.3671
 3075SOL     OW 9284   0.470   4.160   2.732 -0.2862  0.9396  0.1311
 3075SOL    HW1 9285   0.388   4.128   2.694  0.8583 -1.4358 -0.4764
 3075SOL    HW2 9286   0.504   4.221   2.666  0.0470 -0.6336 -1.2211
 3076SOL     OW 9287   3.868   5.007   0.641 -0.1754  0.0833  0.4072
 3076SOL    HW1 9288   3.818   4.984   0.562 -0.5748 -0.4894  0.8159
 3076SOL    HW2 9289   3.801   5.016   0.709  0.3053 -1.2793  1.1018
 3077SOL     OW 9290   1.520   3.451   3.089  0.2629  0.3799  0.6746
 3077SOL    HW1 9291   1.509   3.527   3.147 -1.4824  0.4329  0.3546
 3077SOL    HW2 9292   1.513   3.375   3.147  0.2565  0.4505  0.7669
 3078SOL     OW 9293   5.011   4.939   3.518  0.4337 -0.3343 -0.2274
 3078SOL    HW1 9294   4.992   4.985   3.437  1.1626 -0.3901 -0.4273
 3078SOL    HW2 9295   5.048   4.855   3.491  2.4019  0.3658  0.1599
 3079SOL     OW 9296   0.330   2.504   4.362  0.7260  0.0601  0.0603
 3079SOL    HW1 9297   0.275   2.576   4.393  1.1359  0.1461  0.5970
 3079SOL    HW2 9298   0.319   2.506   4.267  1.1300  1.1661  0.0189
 3080SOL     OW 9299   0.655   1.077   0.601 -0.5597  0.0336 -0.5926
 3080SOL    HW1 9300   0.651   1.147   0.666 -0.1326 -0.3175 -0.1814
 3080SOL    HW2 9301   0.747   1.048   0.602 -0.7292 -0.5234 -0.7677
 3081SOL     OW 9302   3.852   3.689   1.989 -0.1031  0.1517 -0.2215
 3081SOL    HW1 9303   3.767   3.696   1.945 -0.2986 -0.1652  0.1092
 3081SOL    HW2 9304   3.901   3.626   1.936  0.0735  0.6229 -0.6374
 3082SOL     OW 9305   4.248   4.696   2.402 -0.3286  0.0343  0.0582
 3082SOL    HW1 9306   4.273   4.676   2.492  0.5569  1.2528  0.1069
 3082SOL    HW2 9307   4.196   4.776   2.409  0.3128  0.5207 -0.5495
 3083SOL     OW 9308   0.157   1.755   4.178  0.4183  0.1991 -0.2267
 3083SOL    HW1 9309   0.192   1.751   4.090  0.1076  1.2420 -0.4111
 3083SOL    HW2 9310   0.215   1.815   4.225  1.2437 -1.1951  0.6092
 3084SOL     OW 9311   5.080   2.934   3.822  0.4350 -0.4547 -0.3927
 3084SOL    HW1 9312   5.015   2.903   3.759  0.4239 -1.2425  0.0003
 3084SOL    HW2 9313   5.163   2.928   3.775  0.5033 -1.6358 -0.1285
 3085SOL     OW 9314   0.900   0.043   3.629  0.0628 -0.3316  0.1506
 3085SOL    HW1 9315   0.863   0.124   3.666 -1.1057 -1.1290  0.8004
 3085SOL    HW2 9316   0.988   0.067   3.602 -0.3515  1.2316  0.0990
 3086SOL     OW 9317   3.438   0.852   2.879  0.2779 -0.1074 -0.4312
 3086SOL    HW1 9318   3.423   0.841   2.785 -0.7320  2.2349 -0.6250
 3086SOL    HW2 9319   3.532   0.868   2.887  0.1072  1.5755 -1.3226
 3087SOL     OW 9320   2.212   0.011   2.487  0.1650  0.0866  0.1797
 3087SOL    HW1 9321   2.237  -0.043   2.562  0.9437 -0.9078 -0.7749
 3087SOL    HW2 9322   2.285   0.071   2.476 -0.7997  1.5812  1.3875
 3088SOL     OW 9323   2.798   4.738   0.730  0.2597 -0.0759  0.3989
 3088SOL    HW1 9324   2.771   4.695   0.649  0.3439  1.3580 -0.4336
 3088SOL    HW2 9325   2.855   4.810   0.701 -0.0466  0.7205  1.6883
 3089SOL     OW 9326   1.287   1.839   1.440 -0.2900  0.2403  0.9889
 3089SOL    HW1 9327   1.201   1.881   1.430 -0.8914 -1.1961 -0.2167
 3089SOL    HW2 9328   1.316   1.823   1.350 -0.3978 -2.4802  1.3673
 3090SOL     OW 9329   2.498   2.094   1.078 -0.3290 -0.2147  0.2891
 3090SOL    HW1 9330   2.557   2.063   1.010 -0.5117  1.5774 -0.7360
 3090SOL    HW2 9331   2.516   2.187   1.086 -1.1498 -0.1504  1.8723
 3091SOL     OW 9332   2.177   4.171   0.032 -0.1838 -0.2334 -0.2922
 3091SOL    HW1 9333   2.139   4.099   0.082  0.3790 -0.0680  0.3959
 3091SOL    HW2 9334   2.184   4.243   0.094 -1.1687  0.5777 -1.0911
 3092SOL     OW 9335   0.436   3.714   0.495  0.5723  0.1160  0.0506
 3092SOL    HW1 9336   0.416   3.621   0.496  1.2127 -0.0238  0.1221
 3092SOL    HW2 9337   0.354   3.757   0.520 -0.1653 -0.3397 -1.4568
 3093SOL     OW 9338   0.097   1.504   1.155  0.1197  0.1056 -0.2891
 3093SOL    HW1 9339   0.013   1.461   1.136 -0.6781  1.1429  0.7191
 3093SOL    HW2 9340   0.135   1.453   1.226  1.1950 -1.3829 -1.8630
 3094SOL     OW 9341   2.471   4.346   2.228  0.6400 -0.0360 -0.0385
 3094SOL    HW1 9342   2.544   4.286   2.243 -0.4642 -1.2593  0.5975
 3094SOL    HW2 9343   2.394   4.290   2.225 -0.5612  1.4528  1.6004
 3095SOL     OW 9344   0.008   0.689   1.829  0.5564  0.4855  0.2712
 3095SOL    HW1 9345   0.028   0.775   1.864 -1.7822  0.7293  1.1828
 3095SOL    HW2 9346   0.007   0.632   1.906 -0.5067  0.1911  0.0539
 3096SOL     OW 9347   3.400   4.699   0.326  0.0912  0.2229 -0.2018
 3096SOL    HW1 9348   3.460   4.711   0.400 -0.0151  1.4405 -0.2954
 3096SOL    HW2 9349   3.407   4.606   0.305  0.3239 -0.1001  1.1678
 3097SOL     OW 9350   5.325   1.836   3.699  0.0940 -0.3815 -0.0535
 3097SOL    HW1 9351   5.323   1.782   3.620  0.2489 -1.1204  0.4445
 3097SOL    HW2 9352   5.248   1.810   3.748 -2.0436  2.5153 -1.5178
 3098SOL     OW 9353   2.075   1.647   3.115 -0.4812 -0.0328 -0.2620
 3098SOL    HW1 9354   2.147   1.626   3.174 -0.3385  1.5031  0.1554
 3098SOL    HW2 9355   2.028   1.564   3.105  0.7815 -0.8449  0.2024
 3099SOL     OW 9356   0.171   3.772   0.546 -0.0605 -0.3872 -0.2883
 3099SOL    HW1 9357   0.083   3.738   0.530 -0.2357  0.0394 -0.2705
 3099SOL    HW2 9358   0.177   3.849   0.489  0.4985 -0.7254 -0.6842
 3100SOL     OW 9359   3.210   3.883   2.831  0.1394  0.7384  0.3100
 3100SOL    HW1 9360   3.290   3.935   2.816 -0.9040  3.0338  2.1566
 3100SOL    HW2 9361   3.214   3.859   2.923 -1.2308  0.7276  0.3773
 3101SOL     OW 9362   1.104   3.419   0.374 -0.1217  0.4020  0.3613
 3101SOL    HW1 9363   1.072   3.462   0.295  0.1795  2.0465  1.0978
 3101SOL    HW2 9364   1.077   3.476   0.446 -0.3279 -1.0156  1.4640
 3102SOL     OW 9365   2.090   3.211   2.730 -0.1635 -0.1970  0.1845
 3102SOL    HW1 9366   2.078   3.305   2.742 -0.0974 -0.2788  0.9162
 3102SOL    HW2 9367   2.012   3.172   2.769  0.2989 -0.4969  0.8168
 3103SOL     OW 9368   5.412   3.171   1.102 -0.5815 -0.3863 -0.2891
 3103SOL    HW1 9369   5.484   3.129   1.148  0.4092  0.0236 -1.4272
 3103SOL    HW2 9370   5.406   3.258   1.141 -0.1132 -0.2317 -0.5697
 3104SOL     OW 9371   2.047   4.010   1.252  0.4509  0.0516  0.3134
 3104SOL    HW1 9372   2.031   3.957   1.329  0.5268 -2.0937 -1.0772
 3104SOL    HW2 9373   2.129   4.056   1.270  0.2264 -0.0545  1.6597
 3105SOL     OW 9374   2.182   3.574   0.103  0.2369  0.2647 -0.4019
 3105SOL    HW1 9375   2.113   3.548   0.042  1.0315 -0.8228 -0.8800
 3105SOL    HW2 9376   2.156   3.534   0.186  0.4541 -0.4623 -0.6687
 3106SOL     OW 9377   1.856   1.417   3.807 -0.1532 -0.4903  0.4339
 3106SOL    HW1 9378   1.797   1.482   3.846 -1.2796 -0.7859 -0.7292
 3106SOL    HW2 9379   1.805   1.337   3.804  1.1219 -1.3984  1.5652
 3107SOL     OW 9380   1.949   0.574   1.827 -0.3215 -0.4408 -0.3789
 3107SOL    HW1 9381   2.003   0.526   1.764 -0.8006 -1.2179 -0.2095
 3107SOL    HW2 9382   1.937   0.513   1.899 -0.5780  0.1022  0.0401
 3108SOL     OW 9383   0.684   4.970   2.360 -0.1463  0.1563 -0.1541
 3108SOL    HW1 9384   0.649   5.054   2.330 -0.6607  0.1966  0.5383
 3108SOL    HW2 9385   0.748   4.947   2.294 -1.3122  0.1975 -1.3506
 3109SOL     OW 9386   2.638   4.156   2.675 -0.0134  0.0152 -0.1323
 3109SOL    HW1 9387   2.640   4.085   2.738 -0.4027  0.6320  0.5992
 3109SOL    HW2 9388   2.606   4.116   2.594  1.5474 -1.0130 -0.2659
 3110SOL     OW 9389   1.170   0.029   3.565 -0.2291 -0.2861  0.2773
 3110SOL    HW1 9390   1.184   0.023   3.659  0.3146 -1.8179  0.1175
 3110SOL    HW2 9391   1.164   0.123   3.547  1.6936  0.1111  1.5375
 3111SOL     OW 9392   3.000   1.192   1.239  0.3518  0.1725  0.4686
 3111SOL    HW1 9393   2.968   1.212   1.151  1.6662  0.9117  0.1286
 3111SOL    HW2 9394   2.952   1.252   1.297 -0.0085  0.1678  0.1772
 3112SOL     OW 9395   5.320   0.107   3.476 -0.5462  0.5973 -0.7263
 3112SOL    HW1 9396   5.285   0.189   3.510 -2.4340 -0.3624 -0.2371
 3112SOL    HW2 9397   5.289   0.102   3.386 -1.0090  0.1139 -0.5446
 3113SOL     OW 9398   1.589   3.998   1.028 -0.9603  0.2827 -0.1312
 3113SOL    HW1 9399   1.657   4.044   1.077  1.1353 -0.6483 -2.0251
 3113SOL    HW2 9400   1.607   4.017   0.936 -3.5766  0.3718 -0.7141
 3114SOL     OW 9401   4.062   1.659   1.924 -0.5005  0.1661  0.6445
 3114SOL    HW1 9402   4.122   1.731   1.945 -1.3906  1.2177 -0.3201
 3114SOL    HW2 9403   3.989   1.669   1.985 -0.4195 -0.1995  0.8067
 3115SOL     OW 9404   3.015   4.922   3.240 -0.4432  0.1139 -0.0903
 3115SOL    HW1 9405   3.029   4.926   3.146  0.2312 -0.9713 -0.0529
 3115SOL    HW2 9406   3.034   4.831   3.264  0.0213  0.5126  1.1714
 3116SOL     OW 9407   3.173   4.407   1.290  0.2632  0.2426 -0.2411
 3116SOL    HW1 9408   3.135   4.422   1.377  1.1463  0.7039  0.0778
 3116SOL    HW2 9409   3.144   4.482   1.238 -1.0052 -0.4854 -0.6132
 3117SOL     OW 9410   1.627   3.487   1.693 -0.1618 -0.7651  0.1199
 3117SOL    HW1 9411   1.545   3.487   1.643  0.5217 -3.1298 -1.1185
 3117SOL    HW2 9412   1.607   3.439   1.773 -0.5165  0.5650  0.8546
 3118SOL     OW 9413   3.959   1.611   4.082 -0.0015 -0.9160 -0.1378
 3118SOL    HW1 9414   3.976   1.685   4.140  0.6249  0.6007 -2.1368
 3118SOL    HW2 9415   4.043   1.566   4.075 -0.3821 -1.8637  1.0771
 3119SOL     OW 9416   4.629   2.214   4.325  0.3417  0.4922  0.4660
 3119SOL    HW1 9417   4.558   2.152   4.338 -0.8247  1.1406 -2.1435
 3119SOL    HW2 9418   4.585   2.297   4.306  1.5202  0.2561 -4.4491
 3120SOL     OW 9419   1.469   3.124   1.722  0.4597 -0.3062  0.2314
 3120SOL    HW1 9420   1.549   3.169   1.694  0.0500  0.2402 -0.0791
 3120SOL    HW2 9421   1.426   3.100   1.640 -1.7708  3.0770  0.2178
 3121SOL     OW 9422   2.161   1.012   0.663  0.5642 -0.2678  0.2182
 3121SOL    HW1 9423   2.199   1.033   0.748  0.3542  1.9792 -0.1764
 3121SOL    HW2 9424   2.068   1.001   0.680  0.7982 -1.9526  0.5758
 3122SOL     OW 9425   4.411   2.072   2.445 -0.8628  0.2640 -0.7221
 3122SOL    HW1 9426   4.442   2.137   2.508 -2.2269 -0.6200  0.9438
 3122SOL    HW2 9427   4.471   1.998   2.455 -0.7156  0.3555 -0.9170
 3123SOL     OW 9428   5.337   2.034   4.270 -0.5612  0.1724 -0.1071
 3123SOL    HW1 9429   5.247   2.055   4.293 -0.0239  1.4603  0.9449
 3123SOL    HW2 9430   5.352   2.080   4.188 -1.0126 -0.5101 -0.5874
 3124SOL     OW 9431   0.877   4.314   1.268 -0.3538 -0.3626 -0.4526
 3124SOL    HW1 9432   0.834   4.283   1.188  2.1029 -0.3912 -1.9007
 3124SOL    HW2 9433   0.917   4.236   1.306  0.1980 -0.0534 -0.3725
 3125SOL     OW 9434   0.504   2.423   0.873 -0.3312  0.3662  0.4528
 3125SOL    HW1 9435   0.527   2.350   0.930  3.2579  0.2361 -0.8853
 3125SOL    HW2 9436   0.514   2.501   0.929 -4.3580  0.0581  1.9357
 3126SOL     OW 9437   1.401   1.057   4.266  0.0081 -0.3613  0.3585
 3126SOL    HW1 9438   1.318   1.044   4.310  0.3609 -1.6982  0.6702
 3126SOL    HW2 9439   1.377   1.082   4.176 -0.7833 -2.6224 -0.1207
 3127SOL     OW 9440   4.958   3.338   1.694  0.4002 -0.2569 -0.8146
 3127SOL    HW1 9441   4.969   3.348   1.599  1.5205  0.8598 -0.5966
 3127SOL    HW2 9442   4.892   3.404   1.717  0.2541 -0.4112 -0.7902
 3128SOL     OW 9443   1.283   4.968   1.699 -0.0683  0.1179 -0.2491
 3128SOL    HW1 9444   1.218   4.925   1.643  0.1308 -0.7142  0.1382
 3128SOL    HW2 9445   1.247   4.960   1.787 -1.4165  3.2834 -0.3883
 3129SOL     OW 9446   0.573   1.247   0.149 -0.5934 -0.4313 -0.4730
 3129SOL    HW1 9447   0.523   1.204   0.079 -0.4192 -1.0048 -0.2445
 3129SOL    HW2 9448   0.507   1.298   0.197 -0.9038 -0.9123 -0.3829
 3130SOL     OW 9449   4.611   1.644   0.896 -0.6849  0.2661 -0.0817
 3130SOL    HW1 9450   4.640   1.650   0.805  0.5763  3.4262  0.4017
 3130SOL    HW2 9451   4.515   1.651   0.891 -0.5741  1.3447 -1.1526
 3131SOL     OW 9452   5.120   3.599   1.474 -0.6676 -0.1200  0.2784
 3131SOL    HW1 9453   5.193   3.609   1.535 -0.2713 -1.6072  0.0729
 3131SOL    HW2 9454   5.056   3.664   1.502  0.0445  0.0833  1.4810
 3132SOL     OW 9455   4.541   1.932   2.091 -0.3545  0.1628 -0.3329
 3132SOL    HW1 9456   4.459   1.910   2.134  0.4970  0.5722  1.5718
 3132SOL    HW2 9457   4.529   1.902   2.001 -1.7023 -1.9328  0.4679
 3133SOL     OW 9458   2.422   2.576   1.640  0.2985  0.0034  0.4516
 3133SOL    HW1 9459   2.457   2.593   1.727  1.2922  0.8626 -0.1059
 3133SOL    HW2 9460   2.332   2.609   1.643  0.1073 -0.5755  1.3375
 3134SOL     OW 9461   4.856   0.245   3.562 -0.4076 -0.1224 -0.7397
 3134SOL    HW1 9462   4.762   0.260   3.561 -0.3653  0.1809 -0.3944
 3134SOL    HW2 9463   4.894   0.332   3.562 -0.1674 -0.1266  2.1355
 3135SOL     OW 9464   0.994   3.305   1.413  0.1616  0.4732  0.2101
 3135SOL    HW1 9465   1.033   3.308   1.500  3.0683 -0.3281 -0.9288
 3135SOL    HW2 9466   0.985   3.211   1.394  1.6544  0.5438 -1.1046
 3136SOL     OW 9467   0.133   4.883   1.094 -0.1296 -0.2647  0.3099
 3136SOL    HW1 9468   0.115   4.908   1.003 -2.3851  0.2175  0.8260
 3136SOL    HW2 9469   0.163   4.964   1.136  0.2688 -0.3317  0.1581
 3137SOL     OW 9470   4.689   3.734   1.757 -0.3150  0.0051 -0.4102
 3137SOL    HW1 9471   4.719   3.786   1.832 -0.9997 -0.9087  0.5370
 3137SOL    HW2 9472   4.769   3.705   1.714  0.0874  0.6281 -0.0985
 3138SOL     OW 9473   4.474   4.389   0.948 -0.2246  0.2826  0.6322
 3138SOL    HW1 9474   4.447   4.299   0.963 -1.6655  0.6997  0.6933
 3138SOL    HW2 9475   4.407   4.425   0.891  1.4206  0.7473 -1.1231
 3139SOL     OW 9476   1.214   2.683   4.446 -0.1019  0.6208  0.2636
 3139SOL    HW1 9477   1.280   2.752   4.443  0.4489  0.3555  3.1042
 3139SOL    HW2 9478   1.254   2.609   4.400  1.7890  0.4018  2.0978
 3140SOL     OW 9479   5.378   0.074   2.278  0.4011 -0.1036 -0.6580
 3140SOL    HW1 9480   5.357   0.145   2.338 -0.5368  1.4028 -2.6673
 3140SOL    HW2 9481   5.306   0.012   2.287  1.0054 -0.6539  0.7796
 3141SOL     OW 9482   4.860   2.656   1.995  0.5220  0.0855 -0.0124
 3141SOL    HW1 9483   4.826   2.731   2.044 -0.4079 -0.9943  1.0442
 3141SOL    HW2 9484   4.936   2.626   2.044  0.9466  0.3750 -0.4817
 3142SOL     OW 9485   3.386   1.191   2.958 -0.6218 -0.5243  0.1667
 3142SOL    HW1 9486   3.422   1.166   2.873 -1.1029  1.2624 -0.6014
 3142SOL    HW2 9487   3.461   1.226   3.006 -0.5002 -0.8563  0.2276
 3143SOL     OW 9488   0.748   2.608   0.784  0.4465 -0.1084 -0.1325
 3143SOL    HW1 9489   0.727   2.522   0.820 -0.6861  0.1302 -0.1909
 3143SOL    HW2 9490   0.705   2.669   0.844  0.5286  0.3868 -0.5770
 3144SOL     OW 9491   0.467   2.922   3.275  0.0012  0.4210  0.3649
 3144SOL    HW1 9492   0.551   2.947   3.236 -0.1119 -0.5854 -0.5772
 3144SOL    HW2 9493   0.420   2.879   3.204  0.4608 -3.0900  1.9799
 3145SOL     OW 9494   2.388   4.361   3.465 -0.1895 -0.4369 -0.3873
 3145SOL    HW1 9495   2.293   4.359   3.453 -0.2209 -0.6905 -0.1102
 3145SOL    HW2 9496   2.401   4.333   3.556  0.0643  0.9513  0.0338
 3146SOL     OW 9497   2.577   1.261   3.668 -0.3405 -0.6174  0.1075
 3146SOL    HW1 9498   2.588   1.266   3.763 -2.1510 -0.5293  0.3505
 3146SOL    HW2 9499   2.630   1.332   3.634 -1.2952  0.6785  1.2276
 3147SOL     OW 9500   3.852   1.644   0.713 -0.6305 -0.4735  0.6209
 3147SOL    HW1 9501   3.893   1.727   0.689 -0.8671 -0.0044  1.7805
 3147SOL    HW2 9502   3.918   1.578   0.693 -1.4837 -0.4110 -3.2101
 3148SOL     OW 9503   3.993   0.654   0.088  0.1389 -0.2945  0.3228
 3148SOL    HW1 9504   3.978   0.569   0.046  0.1312  0.1893 -0.6880
 3148SOL    HW2 9505   4.084   0.651   0.116  0.1047 -0.6806  0.4040
 3149SOL     OW 9506   3.722   2.978   3.605 -0.5214 -0.3345  0.3545
 3149SOL    HW1 9507   3.671   3.059   3.594  1.6037  1.2285  1.3622
 3149SOL    HW2 9508   3.759   2.961   3.518 -1.6419 -0.7483 -0.0640
 3150SOL     OW 9509   3.954   3.587   1.161  0.1892 -0.8781  0.2058
 3150SOL    HW1 9510   4.001   3.552   1.085  0.6136 -1.7102  0.8333
 3150SOL    HW2 9511   3.885   3.642   1.124  2.2752  1.2770 -0.7853
 3151SOL     OW 9512   0.741   4.305   3.247  0.5546 -0.0811  0.1703
 3151SOL    HW1 9513   0.744   4.395   3.280 -1.2249  0.3680 -0.7932
 3151SOL    HW2 9514   0.714   4.252   3.322  0.2504  0.3864  0.3928
 3152SOL     OW 9515   4.317   3.826   1.704 -0.5468  0.0059  0.2860
 3152SOL    HW1 9516   4.324   3.747   1.651  1.3968 -0.0609  0.5939
 3152SOL    HW2 9517   4.300   3.793   1.793 -0.9909  0.0022  0.2031
 3153SOL     OW 9518   2.937   3.951   2.702 -0.1996  0.1306  0.1162
 3153SOL    HW1 9519   2.989   4.032   2.697 -0.3879  0.3810  1.6194
 3153SOL    HW2 9520   2.986   3.895   2.763 -0.7124 -0.3928  0.0556
 3154SOL     OW 9521   0.234   3.056   1.638  0.3944  0.0629  0.1459
 3154SOL    HW1 9522   0.280   3.120   1.691  1.0069 -1.1477  1.1284
 3154SOL    HW2 9523   0.215   2.984   1.698 -0.2279 -0.7014 -0.9265
 3155SOL     OW 9524   3.836   0.395   1.940 -0.0189  0.2046  0.0342
 3155SOL    HW1 9525   3.796   0.479   1.917 -0.3620 -0.1387 -0.6455
 3155SOL    HW2 9526   3.806   0.334   1.872 -0.1538 -0.5811  0.7794
 3156SOL     OW 9527   0.712   1.907   0.941  0.3432  0.0127 -0.1570
 3156SOL    HW1 9528   0.675   1.933   0.856  0.7460  0.9262 -0.0600
 3156SOL    HW2 9529   0.792   1.860   0.918  0.1375 -0.2700 -0.3018
 3157SOL     OW 9530   0.734   0.621   0.818  0.1762  0.2303 -0.5074
 3157SOL    HW1 9531   0.695   0.659   0.897 -0.4457 -1.0129 -0.1800
 3157SOL    HW2 9532   0.790   0.690   0.782  0.2538  0.9068  0.8664
 3158SOL     OW 9533   4.461   3.786   4.013  0.1234 -0.1635 -0.1014
 3158SOL    HW1 9534   4.386   3.837   4.043  1.4853  0.8951  1.6783
 3158SOL    HW2 9535   4.469   3.808   3.920 -0.1848  1.8135  0.2929
 3159SOL     OW 9536   3.921   1.313   2.216 -0.4483  0.0813  0.2472
 3159SOL    HW1 9537   3.925   1.231   2.265 -0.8273  0.2860  0.6280
 3159SOL    HW2 9538   3.827   1.328   2.203 -0.4276  1.0230  1.1402
 3160SOL     OW 9539   0.230   2.622   2.179  0.1784  0.2160  0.2143
 3160SOL    HW1 9540   0.193   2.660   2.099  0.0470  0.2040  0.2681
 3160SOL    HW2 9541   0.214   2.528   2.170  1.2222  0.0793 -0.2893
 3161SOL     OW 9542   1.869   4.811   1.534  0.4629  0.6550  0.0904
 3161SOL    HW1 9543   1.843   4.833   1.445 -0.0503 -0.0330  0.0629
 3161SOL    HW2 9544   1.965   4.808   1.531  0.4381  0.2230 -0.5445
 3162SOL     OW 9545   5.233   2.648   0.604 -0.0081 -0.4554  0.6581
 3162SOL    HW1 9546   5.256   2.717   0.666  1.7461 -1.1939  0.8867
 3162SOL    HW2 9547   5.312   2.637   0.551 -0.9576 -0.8950 -0.7159
 3163SOL     OW 9548   1.691   2.149   4.228  0.3617  0.2760 -0.3021
 3163SOL    HW1 9549   1.724   2.138   4.318  0.7974 -2.5140 -0.7020
 3163SOL    HW2 9550   1.768   2.169   4.177  0.9207 -2.2430 -0.6034
 3164SOL     OW 9551   0.366   2.563   3.720  0.2947  0.4818 -0.0384
 3164SOL    HW1 9552   0.386   2.626   3.789  0.3835  0.7660 -0.3224
 3164SOL    HW2 9553   0.307   2.610   3.661  0.9187  0.5342 -0.6258
 3165SOL     OW 9554   0.685   0.844   2.930  0.5643 -0.1183  0.0765
 3165SOL    HW1 9555   0.760   0.851   2.872 -1.2585 -1.8364 -2.7485
 3165SOL    HW2 9556   0.611   0.828   2.872 -2.3540  2.9523  2.5586
 3166SOL     OW 9557   4.239   3.663   1.316 -0.0410 -0.2290 -0.0225
 3166SOL    HW1 9558   4.229   3.645   1.222 -1.6434  0.1194  0.0569
 3166SOL    HW2 9559   4.157   3.704   1.341 -0.5622 -2.3354  2.0365
 3167SOL     OW 9560   1.184   1.823   3.107  0.0475  0.3923 -0.0707
 3167SOL    HW1 9561   1.253   1.884   3.082  0.6983 -0.0738  0.5292
 3167SOL    HW2 9562   1.162   1.777   3.026  0.8520  0.1539 -0.1617
 3168SOL     OW 9563   1.667   4.127   1.487  0.1315  0.0996 -0.1509
 3168SOL    HW1 9564   1.693   4.091   1.572 -0.4211 -1.1120 -0.4617
 3168SOL    HW2 9565   1.635   4.215   1.506  2.7217  1.0051  0.4871
 3169SOL     OW 9566   4.411   2.326   0.344  0.3800  0.2527 -0.1245
 3169SOL    HW1 9567   4.430   2.283   0.260  0.3684  0.0971 -0.0469
 3169SOL    HW2 9568   4.343   2.272   0.383 -0.1318  0.7284 -0.3398
 3170SOL     OW 9569   0.669   2.468   2.301 -0.2890  0.2995  0.8338
 3170SOL    HW1 9570   0.599   2.522   2.264 -0.0810 -0.1202 -0.1929
 3170SOL    HW2 9571   0.653   2.471   2.395 -0.2977  2.1416  0.8265
 3171SOL     OW 9572   4.245   3.271   1.126 -0.2781 -0.3496  0.0408
 3171SOL    HW1 9573   4.167   3.220   1.145 -0.1894 -0.8280 -0.8464
 3171SOL    HW2 9574   4.316   3.224   1.170 -0.3227 -0.5458 -0.0942
 3172SOL     OW 9575   0.630   0.256   2.148 -0.2998 -0.3540 -0.4249
 3172SOL    HW1 9576   0.626   0.233   2.056  0.4760  0.4535 -0.6729
 3172SOL    HW2 9577   0.706   0.209   2.181 -1.4051 -1.8136  0.1744
 3173SOL     OW 9578   3.877   4.848   4.048  0.7398 -0.4056  0.7753
 3173SOL    HW1 9579   3.894   4.754   4.048  0.8921 -0.4189 -1.3652
 3173SOL    HW2 9580   3.950   4.885   4.099  0.8035 -1.4094  1.4437
 3174SOL     OW 9581   3.968   2.222   3.794  0.0173  0.0769  0.7481
 3174SOL    HW1 9582   4.027   2.290   3.762  0.2267  0.0467  1.0591
 3174SOL    HW2 9583   3.984   2.147   3.736 -1.3244  0.7607 -0.5683
 3175SOL     OW 9584   2.401   0.169   1.180  0.2770 -0.8719 -0.4460
 3175SOL    HW1 9585   2.413   0.219   1.099 -0.6434  1.1891  0.6176
 3175SOL    HW2 9586   2.458   0.093   1.170  3.2050  1.2722 -1.4133
 3176SOL     OW 9587   3.692   4.249   4.067 -0.1886  0.1495 -0.2247
 3176SOL    HW1 9588   3.673   4.332   4.111  1.3237  0.7804 -0.7151
 3176SOL    HW2 9589   3.611   4.228   4.021 -0.4316  1.6315 -0.5375
 3177SOL     OW 9590   4.486   4.769   1.655 -0.6062  0.3957 -0.4136
 3177SOL    HW1 9591   4.571   4.760   1.699  0.1418  2.4524 -1.2851
 3177SOL    HW2 9592   4.456   4.680   1.641  0.6031 -0.3616  1.4262
 3178SOL     OW 9593   4.158   3.633   3.796  0.4406  0.1973  0.1938
 3178SOL    HW1 9594   4.081   3.596   3.840  0.6530 -0.6529 -0.1340
 3178SOL    HW2 9595   4.160   3.724   3.825  0.0680 -0.1113  1.2469
 3179SOL     OW 9596   1.097   1.439   3.723 -0.2189 -0.3302 -0.1606
 3179SOL    HW1 9597   1.047   1.515   3.754 -0.0906 -0.2849 -0.0625
 3179SOL    HW2 9598   1.127   1.465   3.636  1.3223  0.4478  0.5648
 3180SOL     OW 9599   2.630   0.249   3.966 -0.0423  0.3703 -0.3462
 3180SOL    HW1 9600   2.697   0.182   3.979 -0.7784 -0.1817  0.7304
 3180SOL    HW2 9601   2.574   0.214   3.897 -0.7764 -0.4208  0.6319
 3181SOL     OW 9602   2.009   3.481   2.780  0.5138 -0.3119 -0.0530
 3181SOL    HW1 9603   1.915   3.484   2.762  0.5008 -0.5623 -0.0196
 3181SOL    HW2 9604   2.041   3.568   2.753  0.1628  0.0139  0.5597
 3182SOL     OW 9605   3.428   3.061   4.169  0.1559 -0.5644  0.0606
 3182SOL    HW1 9606   3.384   3.031   4.089  0.0042  0.8677 -0.4270
 3182SOL    HW2 9607   3.518   3.079   4.142  0.4217 -1.1810  0.5026
 3183SOL     OW 9608   3.996   2.419   3.498 -0.3986  0.5658  0.4130
 3183SOL    HW1 9609   4.081   2.459   3.512 -0.4936  1.0926 -0.4289
 3183SOL    HW2 9610   4.014   2.326   3.486  0.3935  0.9679 -2.2454
 3184SOL     OW 9611   4.578   1.071   3.865 -0.2258 -0.0999 -0.0496
 3184SOL    HW1 9612   4.562   1.016   3.942 -0.6873 -0.8773 -0.6897
 3184SOL    HW2 9613   4.637   1.019   3.810  1.0161  0.9140  0.2685
 3185SOL     OW 9614   2.823   0.541   4.267 -0.1141  0.6875 -0.3498
 3185SOL    HW1 9615   2.852   0.494   4.188  1.1748 -0.6221  0.8226
 3185SOL    HW2 9616   2.753   0.486   4.303 -2.0895  2.2937 -1.5606
 3186SOL     OW 9617   2.132   2.612   1.663 -0.0950 -0.0103 -0.0179
 3186SOL    HW1 9618   2.092   2.661   1.735 -0.2458 -0.5185  0.2511
 3186SOL    HW2 9619   2.099   2.655   1.584  0.8824  1.1966  0.2068
 3187SOL     OW 9620   3.157   3.891   0.305  0.4240 -0.3287  0.9793
 3187SOL    HW1 9621   3.183   3.806   0.270  1.5718 -0.0570  1.1336
 3187SOL    HW2 9622   3.162   3.951   0.231  0.9721 -0.1352  1.1635
 3188SOL     OW 9623   1.421   2.282   2.919  0.4611 -0.3078 -0.7688
 3188SOL    HW1 9624   1.393   2.200   2.961 -1.6836  0.5731 -0.3534
 3188SOL    HW2 9625   1.445   2.256   2.830  1.2700 -1.5887 -0.2138
 3189SOL     OW 9626   4.205   4.493   2.018 -0.2323 -0.1621 -0.0493
 3189SOL    HW1 9627   4.226   4.469   2.108  1.2469 -0.1808 -0.3851
 3189SOL    HW2 9628   4.271   4.558   1.993  0.8165 -1.8231 -1.8662
 3190SOL     OW 9629   2.867   0.472   2.089 -0.1481 -0.1268  0.0986
 3190SOL    HW1 9630   2.808   0.481   2.164  2.3039 -0.2604  2.1422
 3190SOL    HW2 9631   2.934   0.411   2.118  1.2860  0.3651 -1.9603
 3191SOL     OW 9632   1.333   3.934   2.127  0.2633 -0.6371 -0.1834
 3191SOL    HW1 9633   1.271   3.985   2.178  2.2103  0.0564  1.6512
 3191SOL    HW2 9634   1.346   3.985   2.047 -1.2467 -0.6557 -0.4718
 3192SOL     OW 9635   1.471   2.889   0.655  0.1793  0.0731 -0.0967
 3192SOL    HW1 9636   1.465   2.794   0.642 -0.4760 -0.1077  1.3424
 3192SOL    HW2 9637   1.393   2.924   0.611 -0.7075 -0.2896  1.1139
 3193SOL     OW 9638   1.536   4.366   2.483  0.2526  0.0770 -0.2584
 3193SOL    HW1 9639   1.627   4.385   2.460  0.7648 -0.5929  1.1351
 3193SOL    HW2 9640   1.542   4.297   2.549 -1.3865 -2.5677 -2.6573
 3194SOL     OW 9641   0.956   4.623   3.976  0.0222  0.2176  0.1114
 3194SOL    HW1 9642   0.996   4.656   3.896 -0.2631  1.0374  0.2974
 3194SOL    HW2 9643   1.021   4.563   4.013  1.2317  1.7402  0.5673
 3195SOL     OW 9644   4.438   2.382   0.870 -0.0516  0.2366  0.4636
 3195SOL    HW1 9645   4.387   2.458   0.900 -0.4301 -0.1908  0.9188
 3195SOL    HW2 9646   4.392   2.307   0.906  0.7271 -0.1790  0.6007
 3196SOL     OW 9647   4.853   1.160   0.452  0.5514 -0.6455  0.1267
 3196SOL    HW1 9648   4.856   1.211   0.371 -1.6908  0.8314  0.8670
 3196SOL    HW2 9649   4.760   1.152   0.472  1.0088 -1.5986  2.1829
 3197SOL     OW 9650   0.592   4.057   1.446 -0.1505  0.5417 -0.1133
 3197SOL    HW1 9651   0.675   4.100   1.427 -1.0783  2.3604 -0.2325
 3197SOL    HW2 9652   0.616   3.984   1.503  1.5914  0.6047 -0.6997
 3198SOL     OW 9653   1.252   1.166   0.688  0.2074 -0.0413  0.4316
 3198SOL    HW1 9654   1.217   1.236   0.632  0.1455  1.4743  2.2341
 3198SOL    HW2 9655   1.257   1.090   0.631 -0.8161  1.1302 -1.3425
 3199SOL     OW 9656   0.275   0.962   2.422  0.4821 -0.1293 -0.0618
 3199SOL    HW1 9657   0.229   0.881   2.399  0.3675  0.3593 -1.7414
 3199SOL    HW2 9658   0.299   0.952   2.514 -1.7917 -0.9767  0.5153
 3200SOL     OW 9659   2.579   2.352   0.719  0.7049 -0.1786  0.1699
 3200SOL    HW1 9660   2.605   2.366   0.629  1.1188 -0.3403  0.2611
 3200SOL    HW2 9661   2.652   2.386   0.771  1.2224 -1.5988  0.4105
 3201SOL     OW 9662   0.607   3.371   1.100  0.0765 -0.4157 -0.0765
 3201SOL    HW1 9663   0.603   3.312   1.176  1.0834 -1.3043 -0.6756
 3201SOL    HW2 9664   0.553   3.328   1.034 -0.5695  0.2116  0.0434
 3202SOL     OW 9665   1.863   1.482   2.459 -0.4738  0.3540  0.1469
 3202SOL    HW1 9666   1.830   1.562   2.500  0.2458  0.4294  0.5897
 3202SOL    HW2 9667   1.955   1.501   2.439 -0.2035 -0.4804  0.5713
 3203SOL     OW 9668   2.795   2.404   0.863 -0.0259  0.0247  0.4796
 3203SOL    HW1 9669   2.874   2.412   0.810 -0.4619 -2.9133 -0.8120
 3203SOL    HW2 9670   2.825   2.418   0.953  1.8028 -0.2668 -0.0434
 3204SOL     OW 9671   3.094   1.793   0.455 -0.2903  0.1443  0.6260
 3204SOL    HW1 9672   3.172   1.750   0.490 -0.4830 -0.2403  0.5955
 3204SOL    HW2 9673   3.093   1.770   0.362 -0.7089 -0.2810  0.7277
 3205SOL     OW 9674   0.983   2.286   2.938  0.1166  0.7980  0.2839
 3205SOL    HW1 9675   0.894   2.255   2.922  0.3795 -0.6470  1.4692
 3205SOL    HW2 9676   0.989   2.297   3.033  1.6595 -0.7628  0.4383
 3206SOL     OW 9677   1.676   4.811   3.527  0.3256  0.1404 -0.3178
 3206SOL    HW1 9678   1.732   4.750   3.479  2.8008  1.0871  1.1341
 3206SOL    HW2 9679   1.628   4.858   3.459  2.2472  0.0956 -1.7926
 3207SOL     OW 9680   2.168   2.002   0.361 -0.5372  0.2026 -0.3515
 3207SOL    HW1 9681   2.075   2.009   0.339 -0.3004  2.5649 -0.9040
 3207SOL    HW2 9682   2.213   2.014   0.278  0.2739 -0.3710  0.0021
 3208SOL     OW 9683   4.155   2.545   4.026  0.2713 -0.1104 -0.1885
 3208SOL    HW1 9684   4.208   2.472   4.059 -0.1716  0.1515  1.1723
 3208SOL    HW2 9685   4.191   2.622   4.070  0.3262  0.4209 -1.1345
 3209SOL     OW 9686   3.462   2.466   2.244 -0.4147 -0.0890 -0.1731
 3209SOL    HW1 9687   3.405   2.411   2.297 -1.9366  2.2330  0.7827
 3209SOL    HW2 9688   3.402   2.514   2.186  0.8915  0.1195 -1.4062
 3210SOL     OW 9689   3.644   0.541   1.002  0.1258  0.1909  0.2436
 3210SOL    HW1 9690   3.553   0.565   1.017 -0.1070 -0.5624  0.0704
 3210SOL    HW2 9691   3.674   0.507   1.086  0.0502 -0.1607  0.1317
 3211SOL     OW 9692   5.267   4.643   2.054  0.2314 -1.1795 -0.1789
 3211SOL    HW1 9693   5.350   4.661   2.009  0.3927 -0.1844  0.4941
 3211SOL    HW2 9694   5.202   4.636   1.984  0.8161 -1.6561 -0.6910
 3212SOL     OW 9695   3.344   4.449   1.587  0.7285 -0.4929 -0.3215
 3212SOL    HW1 9696   3.278   4.435   1.654 -0.7582  0.8476 -1.4101
 3212SOL    HW2 9697   3.399   4.371   1.589 -0.6838 -1.4844  0.8719
 3213SOL     OW 9698   1.496   3.271   0.299  0.2303 -0.0177  0.0326
 3213SOL    HW1 9699   1.520   3.209   0.367 -1.1364  0.6416  1.1653
 3213SOL    HW2 9700   1.546   3.243   0.222  1.0647 -1.3628  1.0234
 3214SOL     OW 9701   3.719   0.230   4.244  0.1202  0.1754  0.0039
 3214SOL    HW1 9702   3.680   0.317   4.237  0.2666  0.3342  0.9698
 3214SOL    HW2 9703   3.649   0.176   4.280  0.3277  0.1175  0.3223
 3215SOL     OW 9704   2.507   2.420   1.400  0.2410 -0.5746  0.0908
 3215SOL    HW1 9705   2.446   2.486   1.434  0.0291 -0.2579 -0.8662
 3215SOL    HW2 9706   2.575   2.413   1.467  0.3070  0.6818  0.1782
 3216SOL     OW 9707   1.750   1.152   3.784  0.5131  0.1811 -0.3714
 3216SOL    HW1 9708   1.704   1.110   3.856  1.8254  0.5199  0.7152
 3216SOL    HW2 9709   1.814   1.087   3.755 -0.0011  0.0509 -1.2369
 3217SOL     OW 9710   1.501   4.286   1.767  0.0589 -0.0140 -0.3887
 3217SOL    HW1 9711   1.451   4.362   1.739 -0.8253  0.6147  2.5960
 3217SOL    HW2 9712   1.547   4.315   1.846  2.3141 -1.6502 -1.0181
 3218SOL     OW 9713   1.483   3.898   1.438  0.5736 -0.0817  0.1338
 3218SOL    HW1 9714   1.506   3.979   1.393 -0.2411 -0.3773 -0.8682
 3218SOL    HW2 9715   1.448   3.927   1.523 -0.0714  0.6430 -0.3647
 3219SOL     OW 9716   1.292   4.873   1.090  0.0528  0.4120 -0.1567
 3219SOL    HW1 9717   1.211   4.861   1.140 -0.2663 -0.4543 -0.8541
 3219SOL    HW2 9718   1.263   4.885   1.000  0.7298 -2.2733 -0.8329
 3220SOL     OW 9719   5.142   4.126   1.417  0.5174 -0.3996  0.2053
 3220SOL    HW1 9720   5.052   4.109   1.445  0.6046 -1.0235  0.1067
 3220SOL    HW2 9721   5.145   4.096   1.326  1.3657 -2.2882  0.8206
 3221SOL     OW 9722   0.596   0.834   2.027  0.3198 -0.6354  0.4952
 3221SOL    HW1 9723   0.651   0.758   2.009 -1.0118 -1.2777 -1.0565
 3221SOL    HW2 9724   0.556   0.815   2.112  1.5075 -0.7378  1.0419
 3222SOL     OW 9725   2.802   0.866   1.885 -0.2099  0.1176  0.3282
 3222SOL    HW1 9726   2.896   0.853   1.872 -0.3321 -0.1267 -0.3439
 3222SOL    HW2 9727   2.761   0.796   1.835 -0.7217 -0.7687  1.9176
 3223SOL     OW 9728   3.907   0.078   0.951  0.1694 -0.0255 -0.1148
 3223SOL    HW1 9729   3.890   0.172   0.939  3.1372  0.7477  0.9035
 3223SOL    HW2 9730   3.981   0.075   1.011 -0.3271 -3.0873  0.4752
 3224SOL     OW 9731   3.118   5.042   2.167  0.0512  0.0007 -0.0779
 3224SOL    HW1 9732   3.081   5.066   2.252  0.3845  0.4103 -0.0427
 3224SOL    HW2 9733   3.066   4.967   2.138 -0.0222 -0.1832  0.5182
 3225SOL     OW 9734   3.599   4.257   1.058 -0.2891 -0.1985 -0.4186
 3225SOL    HW1 9735   3.541   4.184   1.036 -0.3735  0.0793 -1.1495
 3225SOL    HW2 9736   3.550   4.308   1.123 -0.4513 -0.4966 -0.3042
 3226SOL     OW 9737   4.240   0.096   2.693  0.1210  0.0159  0.8535
 3226SOL    HW1 9738   4.150   0.076   2.668 -1.0819  2.0685  3.0995
 3226SOL    HW2 9739   4.292   0.070   2.617 -2.4795 -0.0871 -1.0374
 3227SOL     OW 9740   2.486   3.289   3.774  0.1636  0.3482 -0.9094
 3227SOL    HW1 9741   2.459   3.376   3.802  1.9002  1.2372 -1.8010
 3227SOL    HW2 9742   2.530   3.252   3.851  0.5635  0.7965 -0.9138
 3228SOL     OW 9743   4.945   0.415   0.055 -0.4521 -0.6349  0.0390
 3228SOL    HW1 9744   4.971   0.478  -0.012 -0.0117 -1.1917 -0.3301
 3228SOL    HW2 9745   4.989   0.445   0.135  0.7622 -1.1467 -0.4131
 3229SOL     OW 9746   2.780   1.356   2.820 -0.0535 -0.4234 -0.1924
 3229SOL    HW1 9747   2.766   1.273   2.866  2.7402 -0.6037  0.5212
 3229SOL    HW2 9748   2.808   1.416   2.889  0.0003  0.5335 -1.0293
 3230SOL     OW 9749   2.685   1.491   1.833  0.1274 -0.0957 -0.1650
 3230SOL    HW1 9750   2.635   1.483   1.915 -0.1283 -2.1442 -0.4712
 3230SOL    HW2 9751   2.758   1.548   1.856 -0.9610  0.9285  0.9584
 3231SOL     OW 9752   2.129   0.753   1.899 -0.3675  0.5510  0.3821
 3231SOL    HW1 9753   2.176   0.711   1.971 -1.6495  1.3436  1.7318
 3231SOL    HW2 9754   2.072   0.684   1.864  1.8683 -0.5070 -1.4612
 3232SOL     OW 9755   2.794   3.240   4.069  0.3708 -0.5034 -0.0543
 3232SOL    HW1 9756   2.794   3.315   4.010 -1.3174  1.2837  2.0240
 3232SOL    HW2 9757   2.718   3.188   4.042  0.8596 -0.8653 -0.7632
 3233SOL     OW 9758   1.926   0.589   2.275 -0.0027  0.0317  0.4902
 3233SOL    HW1 9759   1.856   0.547   2.325 -1.6233  1.8480 -0.1468
 3233SOL    HW2 9760   2.006   0.563   2.320 -1.1263 -1.5409  1.6704
 3234SOL     OW 9761   1.573   0.575   2.764 -0.7096  0.1207 -0.5102
 3234SOL    HW1 9762   1.570   0.670   2.752  0.4335  0.0328 -1.7867
 3234SOL    HW2 9763   1.485   0.545   2.741 -1.1672  0.8959  0.1972
 3235SOL     OW 9764   2.123   3.739   3.306 -0.3229  0.2138 -0.3232
 3235SOL    HW1 9765   2.189   3.797   3.268  0.6837 -0.1133  0.8712
 3235SOL    HW2 9766   2.041   3.789   3.301  0.3819  1.4401  0.0103
 3236SOL     OW 9767   1.210   3.694   1.523 -0.1578  0.1361  0.3199
 3236SOL    HW1 9768   1.127   3.669   1.563 -0.4757 -0.9284 -0.9514
 3236SOL    HW2 9769   1.224   3.785   1.551 -1.2388  0.0022  1.3544
 3237SOL     OW 9770   3.049   3.051   0.206  1.1124  0.4640  0.6545
 3237SOL    HW1 9771   3.096   2.988   0.260 -2.2537 -2.3391  0.6666
 3237SOL    HW2 9772   2.957   3.031   0.220 -0.0819  3.1323 -2.1091
 3238SOL     OW 9773   2.650   1.729   3.369 -0.1622  0.3273 -0.3638
 3238SOL    HW1 9774   2.622   1.814   3.401 -1.8637 -0.3124 -0.0477
 3238SOL    HW2 9775   2.610   1.721   3.282 -1.0368 -0.6133  0.0986
 3239SOL     OW 9776   2.095   2.543   0.130  0.0756  0.8526 -0.2034
 3239SOL    HW1 9777   2.092   2.447   0.138 -1.6074  0.7779 -1.2775
 3239SOL    HW2 9778   2.154   2.571   0.200  1.6172 -1.0434 -0.6523
 3240SOL     OW 9779   3.816   3.488   0.491 -0.7389 -0.0032 -0.6376
 3240SOL    HW1 9780   3.838   3.456   0.578 -0.4352  0.0088 -0.7112
 3240SOL    HW2 9781   3.872   3.439   0.432  0.3342  1.2335 -0.6882
 3241SOL     OW 9782   1.305   4.875   3.205 -0.0439 -0.1761 -0.3764
 3241SOL    HW1 9783   1.284   4.839   3.119  0.0530  0.1558 -0.5368
 3241SOL    HW2 9784   1.226   4.922   3.231 -0.5090 -1.2435  0.2278
 3242SOL     OW 9785   5.341   4.101   1.221 -0.1501  0.1970 -0.6012
 3242SOL    HW1 9786   5.300   4.173   1.173  0.4459  1.1262  0.2425
 3242SOL    HW2 9787   5.426   4.089   1.178 -0.4876 -0.3872 -1.1026
 3243SOL     OW 9788   3.876   3.269   0.887  0.3348  0.1260 -0.1566
 3243SOL    HW1 9789   3.813   3.319   0.939  0.7648  1.8619 -1.2308
 3243SOL    HW2 9790   3.823   3.203   0.842 -0.3273 -0.0681  0.8593
 3244SOL     OW 9791   1.679   1.223   1.078 -0.3115  0.4596 -0.7478
 3244SOL    HW1 9792   1.708   1.203   1.167 -2.8682  0.8478  0.2661
 3244SOL    HW2 9793   1.679   1.138   1.033 -2.3727 -0.4555  0.7749
 3245SOL     OW 9794   4.251   1.985   0.472 -0.6766 -0.3274 -0.2216
 3245SOL    HW1 9795   4.223   2.073   0.446  0.9035  0.7136  1.3635
 3245SOL    HW2 9796   4.290   1.948   0.393 -2.1272  0.0102 -1.1461
 3246SOL     OW 9797   4.985   3.227   1.000 -0.6768  0.3754  0.9162
 3246SOL    HW1 9798   4.996   3.139   0.963 -2.6679  0.8154 -0.9023
 3246SOL    HW2 9799   4.934   3.214   1.079 -0.1097 -0.1905  1.1959
 3247SOL     OW 9800   5.386   0.250   1.425  0.0322 -0.0121  0.2109
 3247SOL    HW1 9801   5.454   0.185   1.444 -1.3285 -1.6676 -0.3238
 3247SOL    HW2 9802   5.433   0.324   1.386  1.4690 -1.2983 -0.5851
 3248SOL     OW 9803   4.211   2.135   3.149 -0.3255  0.0748  0.0482
 3248SOL    HW1 9804   4.224   2.218   3.196  1.0821 -0.6329  0.9684
 3248SOL    HW2 9805   4.211   2.068   3.217 -2.6177 -0.6471 -0.5573
 3249SOL     OW 9806   2.731   4.023   0.294  0.8137 -0.1116 -0.0067
 3249SOL    HW1 9807   2.787   4.089   0.336 -0.5875  0.6580  0.7178
 3249SOL    HW2 9808   2.705   3.966   0.366  0.1574 -0.0764 -0.2118
 3250SOL     OW 9809   0.240   4.688   0.771  0.4328  0.8780 -0.4417
 3250SOL    HW1 9810   0.195   4.760   0.727 -1.3809  0.4971  0.6709
 3250SOL    HW2 9811   0.202   4.609   0.731 -0.3016  0.5444  0.8321
 3251SOL     OW 9812   3.929   1.030   1.540  0.8474 -0.0958  0.2257
 3251SOL    HW1 9813   3.938   0.998   1.630  0.8507 -2.3831 -0.5179
 3251SOL    HW2 9814   3.834   1.042   1.528  0.7842 -0.5174  0.3016
 3252SOL     OW 9815   3.195   4.352   1.806 -0.0449  0.1395 -0.1978
 3252SOL    HW1 9816   3.170   4.363   1.898 -2.0571 -1.3557 -0.4907
 3252SOL    HW2 9817   3.283   4.315   1.809  0.0932  0.5373  1.1071
 3253SOL     OW 9818   1.725   3.878   1.960  0.5341  0.3545  0.1781
 3253SOL    HW1 9819   1.744   3.853   1.870  1.8697  1.5819  0.0897
 3253SOL    HW2 9820   1.773   3.815   2.014 -0.0101 -0.1844  0.0454
 3254SOL     OW 9821   1.670   3.756   1.156  0.0642 -0.1142 -0.0323
 3254SOL    HW1 9822   1.633   3.836   1.118 -0.2061 -1.0792 -1.9574
 3254SOL    HW2 9823   1.595   3.696   1.164  0.5326 -0.7333 -0.1915
 3255SOL     OW 9824   1.708   3.325   1.207  0.5961 -0.1831 -0.2687
 3255SOL    HW1 9825   1.651   3.399   1.189  0.5698 -0.5415 -1.7903
 3255SOL    HW2 9826   1.681   3.257   1.144  2.2418 -0.5907 -0.6023
 3256SOL     OW 9827   1.763   4.785   0.269  0.0625 -0.0441 -0.4015
 3256SOL    HW1 9828   1.738   4.697   0.296 -0.6563  0.1919 -0.2838
 3256SOL    HW2 9829   1.831   4.810   0.331  0.4541 -0.6136 -0.5930
 3257SOL     OW 9830   0.621   0.536   4.106 -0.1664  0.5687 -0.2730
 3257SOL    HW1 9831   0.601   0.607   4.044 -2.0084 -1.3155 -1.9839
 3257SOL    HW2 9832   0.710   0.509   4.082 -0.8170 -0.0889 -2.1633
 3258SOL     OW 9833   1.806   2.176   1.214 -0.0041  0.5175 -0.0851
 3258SOL    HW1 9834   1.725   2.210   1.252 -0.0725 -0.7365  0.9420
 3258SOL    HW2 9835   1.779   2.096   1.169  0.8153 -0.5404  1.2391
 3259SOL     OW 9836   5.186   1.586   0.500  0.3588  0.3537  0.0994
 3259SOL    HW1 9837   5.238   1.665   0.482  1.4480 -0.1096  1.0626
 3259SOL    HW2 9838   5.222   1.551   0.582  0.2321 -1.4032 -0.5378
 3260SOL     OW 9839   4.325   0.441   2.916 -0.7132  0.7253 -0.3007
 3260SOL    HW1 9840   4.323   0.518   2.972 -0.1304  0.3009  0.3291
 3260SOL    HW2 9841   4.395   0.459   2.854 -1.5404  1.3138 -1.0870
 3261SOL     OW 9842   3.417   4.358   3.236  0.0137 -0.2476 -0.8543
 3261SOL    HW1 9843   3.403   4.450   3.259  0.6026 -0.2993 -0.2862
 3261SOL    HW2 9844   3.478   4.325   3.302  0.5306 -0.8038 -1.5995
 3262SOL     OW 9845   2.551   1.486   2.103 -0.0617  0.1378 -0.6346
 3262SOL    HW1 9846   2.484   1.428   2.067  0.3619 -0.4774 -0.4538
 3262SOL    HW2 9847   2.514   1.516   2.186  0.8586 -2.1810  0.7177
 3263SOL     OW 9848   1.379   2.902   0.288  0.0172  0.5786  0.2648
 3263SOL    HW1 9849   1.328   2.829   0.252 -2.8500  1.6907  1.7449
 3263SOL    HW2 9850   1.366   2.896   0.382  1.6572  1.6996  0.6091
 3264SOL     OW 9851   3.940   1.607   3.133  0.4796  0.1341  0.3602
 3264SOL    HW1 9852   3.877   1.577   3.068  0.1625  3.3755 -1.0385
 3264SOL    HW2 9853   4.022   1.617   3.084  0.5231  1.5372  0.6712
 3265SOL     OW 9854   3.378   3.148   2.536  0.5191  0.2111 -0.0272
 3265SOL    HW1 9855   3.459   3.117   2.497  0.3173 -0.4229  0.0460
 3265SOL    HW2 9856   3.390   3.243   2.543  2.2556 -0.0964  2.2435
 3266SOL     OW 9857   1.356   1.058   3.289 -0.1803  0.1781 -0.2204
 3266SOL    HW1 9858   1.364   1.045   3.383  1.7540 -1.7208 -0.5578
 3266SOL    HW2 9859   1.391   1.145   3.273 -3.0136  1.6924  1.0072
 3267SOL     OW 9860   4.796   4.657   2.991  0.1131  0.0347  0.6652
 3267SOL    HW1 9861   4.799   4.566   2.959 -2.2194  0.3577 -0.6827
 3267SOL    HW2 9862   4.887   4.677   3.013  0.9486 -2.1198 -0.4611
 3268SOL     OW 9863   2.170   2.473   3.552 -0.4254 -0.1592 -0.0039
 3268SOL    HW1 9864   2.175   2.523   3.634 -0.8238  0.0454 -0.1020
 3268SOL    HW2 9865   2.092   2.507   3.508 -1.8113 -2.1248  0.7652
 3269SOL     OW 9866   1.406   3.873   4.073  0.3336  0.4524 -0.5244
 3269SOL    HW1 9867   1.449   3.789   4.055  1.1581  0.7539 -0.0350
 3269SOL    HW2 9868   1.461   3.938   4.027  1.6490  1.0820  1.7759
 3270SOL     OW 9869   2.794   2.715   2.632 -0.1131 -0.0953  0.0185
 3270SOL    HW1 9870   2.795   2.756   2.546 -1.9330  0.0784  0.0386
 3270SOL    HW2 9871   2.867   2.653   2.630  1.9834  2.2429 -0.4122
 3271SOL     OW 9872   0.145   0.220   3.408  0.1502 -0.3081  0.5258
 3271SOL    HW1 9873   0.201   0.154   3.367 -0.0779 -1.3655  1.8480
 3271SOL    HW2 9874   0.087   0.170   3.465 -1.0748  0.9117  0.3977
 3272SOL     OW 9875   0.203   1.718   1.330 -0.1082 -0.2217  0.6534
 3272SOL    HW1 9876   0.284   1.768   1.325 -1.0517  1.2469 -1.9137
 3272SOL    HW2 9877   0.212   1.652   1.261 -0.9767 -0.2228  0.5354
 3273SOL     OW 9878   0.380   3.756   1.401 -0.1457 -0.1532 -0.4433
 3273SOL    HW1 9879   0.383   3.708   1.319 -1.0814 -0.5119 -0.2792
 3273SOL    HW2 9880   0.353   3.844   1.376  0.0819 -0.1177 -0.5718
 3274SOL     OW 9881   4.812   4.917   0.004  0.0078  0.3902  0.0059
 3274SOL    HW1 9882   4.721   4.897   0.024 -0.1702  1.8997  0.9420
 3274SOL    HW2 9883   4.849   4.835  -0.027 -2.6002  0.5185 -4.2034
 3275SOL     OW 9884   5.186   0.054   4.432 -0.0724  0.7430  0.1039
 3275SOL    HW1 9885   5.236   0.115   4.486 -1.5596  2.0426  0.0914
 3275SOL    HW2 9886   5.181  -0.026   4.484  3.7304 -0.2660 -0.7622
 3276SOL     OW 9887   1.143   4.006   4.117  0.2914  0.2840 -0.5431
 3276SOL    HW1 9888   1.126   4.059   4.040  0.4003  0.9687 -0.1024
 3276SOL    HW2 9889   1.235   3.980   4.109  0.5123  0.9769 -0.2695
 3277SOL     OW 9890   1.409   1.664   1.605 -0.4696  0.5758  0.2118
 3277SOL    HW1 9891   1.496   1.703   1.614 -0.8181  1.1308  1.3375
 3277SOL    HW2 9892   1.366   1.718   1.539  0.0572  0.2487 -0.4135
 3278SOL     OW 9893   2.408   3.378   3.178 -0.0220 -0.0305  0.0916
 3278SOL    HW1 9894   2.362   3.427   3.110  0.8314  0.8033  0.0922
 3278SOL    HW2 9895   2.485   3.431   3.198 -0.7172  0.2048  2.3844
 3279SOL     OW 9896   3.935   4.335   0.372  0.2840  0.4609 -0.5582
 3279SOL    HW1 9897   3.855   4.377   0.340  0.4349 -0.4450 -2.2043
 3279SOL    HW2 9898   3.935   4.248   0.333  1.4877 -0.0059  0.3852
 3280SOL     OW 9899   1.520   3.393   1.935 -0.1623  0.0612  0.0625
 3280SOL    HW1 9900   1.479   3.390   2.022  2.1526  1.2807  1.2858
 3280SOL    HW2 9901   1.446   3.395   1.874 -1.8765 -0.5584  1.9867
 3281SOL     OW 9902   0.940   3.200   3.133  0.4467 -0.3068 -0.2281
 3281SOL    HW1 9903   0.865   3.193   3.074 -1.6440 -1.4217  2.4183
 3281SOL    HW2 9904   0.905   3.239   3.213  2.1252 -2.8368  1.9022
 3282SOL     OW 9905   2.398   4.663   4.021  0.1396 -0.3119  0.6324
 3282SOL    HW1 9906   2.345   4.629   3.949  0.4650  1.9479 -0.7606
 3282SOL    HW2 9907   2.388   4.758   4.016  3.5380  0.1712  0.9237
 3283SOL     OW 9908   3.649   4.778   1.625 -0.5027  0.2178 -0.8368
 3283SOL    HW1 9909   3.576   4.729   1.588 -1.4466  0.4226  0.6415
 3283SOL    HW2 9910   3.685   4.720   1.692  0.8331  0.0426 -1.6801
 3284SOL     OW 9911   4.509   4.476   2.102  0.4764 -0.1784 -0.0733
 3284SOL    HW1 9912   4.426   4.468   2.150  1.3927 -0.2821  1.5805
 3284SOL    HW2 9913   4.535   4.568   2.115  0.3094  0.0266 -1.1390
 3285SOL     OW 9914   1.956   1.369   1.199 -0.3212 -0.1330  0.3322
 3285SOL    HW1 9915   1.870   1.381   1.239 -0.4298  0.1987  0.0042
 3285SOL    HW2 9916   1.938   1.332   1.113 -0.1514  0.1927  0.1555
 3286SOL     OW 9917   1.710   1.585   3.114 -0.1882 -0.0037  0.3301
 3286SOL    HW1 9918   1.668   1.608   3.197 -1.6639 -1.3742  0.0257
 3286SOL    HW2 9919   1.647   1.612   3.048  0.5222  0.1327 -0.3029
 3287SOL     OW 9920   0.598   1.967   0.381 -0.6682 -0.4060 -0.2625
 3287SOL    HW1 9921   0.623   1.916   0.304  0.0323 -2.1990  1.0730
 3287SOL    HW2 9922   0.641   2.052   0.368  0.2084 -0.9905 -1.3987
 3288SOL     OW 9923   4.377   3.275   2.834  0.4436  0.3397 -0.1634
 3288SOL    HW1 9924   4.358   3.289   2.927 -0.0656  0.3013 -0.2557
 3288SOL    HW2 9925   4.461   3.319   2.819 -0.3456  1.9682 -0.0965
 3289SOL     OW 9926   4.080   2.834   2.302  0.3938  0.4667  0.5634
 3289SOL    HW1 9927   4.115   2.794   2.222 -0.3348  0.2541  0.3465
 3289SOL    HW2 9928   4.026   2.907   2.270 -1.2262 -0.5992  0.7486
 3290SOL     OW 9929   3.308   4.168   0.323  0.5926  0.2740 -0.3645
 3290SOL    HW1 9930   3.401   4.166   0.300  1.1412  0.6860  1.6474
 3290SOL    HW2 9931   3.290   4.081   0.358  0.0673  0.0455 -1.1515
 3291SOL     OW 9932   3.188   4.250   3.322  0.2284  0.2295 -0.5172
 3291SOL    HW1 9933   3.122   4.316   3.300 -0.6100 -0.0797  0.9439
 3291SOL    HW2 9934   3.270   4.287   3.289 -0.5801  0.8726 -1.8898
 3292SOL     OW 9935   0.219   3.729   1.154 -0.0342  0.0994  0.4460
 3292SOL    HW1 9936   0.240   3.641   1.122 -0.6262  0.6157 -1.4715
 3292SOL    HW2 9937   0.269   3.788   1.098 -1.4321  1.0660  0.1661
 3293SOL     OW 9938   1.495   4.863   4.046  0.0620  0.6032 -0.4660
 3293SOL    HW1 9939   1.588   4.873   4.026 -0.1057  0.3781 -1.4027
 3293SOL    HW2 9940   1.468   4.949   4.077  0.5297  0.7398 -0.4298
 3294SOL     OW 9941   2.681   1.876   4.067  0.1321 -0.0431  0.0024
 3294SOL    HW1 9942   2.748   1.836   4.012  0.3756 -0.4008  0.5484
 3294SOL    HW2 9943   2.720   1.959   4.096  0.0578  0.0816 -0.2570
 3295SOL     OW 9944   0.379   0.373   1.252  0.0650  0.0948 -0.6268
 3295SOL    HW1 9945   0.346   0.284   1.240 -0.1826 -0.0835  1.1630
 3295SOL    HW2 9946   0.322   0.412   1.317  0.1616  1.6002 -1.3972
 3296SOL     OW 9947   3.058   2.617   2.183 -0.0761 -0.2901  0.1563
 3296SOL    HW1 9948   2.994   2.599   2.114 -0.1021  0.4084 -0.0022
 3296SOL    HW2 9949   3.038   2.552   2.251 -1.6013  0.5271  0.5458
 3297SOL     OW 9950   3.425   0.878   1.328 -0.2798 -0.1271  0.7083
 3297SOL    HW1 9951   3.451   0.965   1.298 -1.9200  0.0079 -0.4674
 3297SOL    HW2 9952   3.375   0.895   1.408  0.1157 -0.0711  0.9462
 3298SOL     OW 9953   1.157   4.324   1.672 -0.1145  0.1756 -0.5965
 3298SOL    HW1 9954   1.216   4.296   1.602  0.5177 -0.1359  0.0509
 3298SOL    HW2 9955   1.116   4.403   1.638  0.8962  0.5662 -0.9502
 3299SOL     OW 9956   0.175   2.713   3.597  0.4691 -0.3125  0.0585
 3299SOL    HW1 9957   0.258   2.734   3.555  1.0108  1.0884  1.6807
 3299SOL    HW2 9958   0.159   2.788   3.655 -1.8044 -0.6708 -0.0364
 3300SOL     OW 9959   1.072   3.885   0.841 -0.2385 -0.1558  0.5556
 3300SOL    HW1 9960   1.160   3.877   0.805 -0.8038 -0.5318 -0.8257
 3300SOL    HW2 9961   1.079   3.953   0.908  1.4906 -1.5727  1.8624
 3301SOL     OW 9962   1.453   1.356   3.739  0.4970 -0.1528 -0.0500
 3301SOL    HW1 9963   1.522   1.339   3.675  0.0573 -1.8316 -0.1164
 3301SOL    HW2 9964   1.420   1.443   3.716  1.1553 -0.2224 -1.3400
 3302SOL     OW 9965   1.631   0.985   0.992 -0.1793 -0.0361  0.0992
 3302SOL    HW1 9966   1.648   0.894   0.966 -2.1846 -0.6678  0.8181
 3302SOL    HW2 9967   1.556   1.011   0.939 -0.7237  0.5850  1.1377
 3303SOL     OW 9968   3.477   0.805   4.353  0.2209 -0.5406 -0.1449
 3303SOL    HW1 9969   3.507   0.869   4.288 -0.7019 -0.3934 -0.4402
 3303SOL    HW2 9970   3.390   0.780   4.324 -0.5279  0.1001  1.4466
 3304SOL     OW 9971   2.184   1.235   1.802  0.0151 -0.3226 -0.0824
 3304SOL    HW1 9972   2.121   1.236   1.875  1.8599 -1.7061  1.6294
 3304SOL    HW2 9973   2.185   1.144   1.772  0.7107 -0.1746 -0.5226
 3305SOL     OW 9974   4.132   2.540   2.598  0.2320 -0.5376 -0.3092
 3305SOL    HW1 9975   4.092   2.488   2.528 -0.3657  0.6203 -0.8445
 3305SOL    HW2 9976   4.113   2.491   2.678 -3.7246  0.6850 -0.2924
 3306SOL     OW 9977   3.166   0.744   0.589 -0.1902  0.2492 -0.4966
 3306SOL    HW1 9978   3.243   0.770   0.639 -0.3480  1.5399 -0.8845
 3306SOL    HW2 9979   3.176   0.650   0.576  0.0241 -0.0794  1.6567
 3307SOL     OW 9980   2.057   0.399   1.662  0.3973  0.2897 -0.6802
 3307SOL    HW1 9981   2.058   0.304   1.668 -1.8170  0.2314 -0.2879
 3307SOL    HW2 9982   2.101   0.419   1.579  0.4386 -1.1063 -1.0123
 3308SOL     OW 9983   5.423   3.412   1.235 -0.6660 -0.3218  0.4489
 3308SOL    HW1 9984   5.456   3.468   1.305  0.2753 -0.8290  0.4412
 3308SOL    HW2 9985   5.432   3.465   1.156 -0.7350 -0.1234  0.5726
 3309SOL     OW 9986   1.168   1.941   4.388 -0.3738  0.7730 -0.0101
 3309SOL    HW1 9987   1.084   1.921   4.429  0.2408 -0.3378  0.7940
 3309SOL    HW2 9988   1.233   1.902   4.447  0.8294  3.0480  0.3089
 3310SOL     OW 9989   2.586   5.128   1.916 -0.5512  0.4445  0.1944
 3310SOL    HW1 9990   2.661   5.159   1.966  0.8854 -0.9660 -0.9926
 3310SOL    HW2 9991   2.578   5.191   1.844 -0.4880  0.5765  0.3027
 3311SOL     OW 9992   0.077   1.240   3.029 -0.0417  0.2514  0.3270
 3311SOL    HW1 9993   0.170   1.236   3.050  0.6806  0.2435 -2.3826
 3311SOL    HW2 9994   0.053   1.331   3.044  1.1852  0.9427 -1.5119
 3312SOL     OW 9995   4.809   1.603   4.227  0.4148  0.0522  0.1505
 3312SOL    HW1 9996   4.861   1.526   4.204  2.4857  1.1342  0.9729
 3312SOL    HW2 9997   4.788   1.590   4.320  0.0372  0.0735  0.0673
 3313SOL     OW 9998   3.757   2.643   1.751 -0.1030 -0.2268 -0.5099
 3313SOL    HW1 9999   3.756   2.550   1.725  0.8124 -0.6079  0.7438
 3313SOL    HW210000   3.717   2.688   1.677  0.1641 -1.5385 -1.5022
 3314SOL     OW10001   1.085   2.019   3.291  0.2398  0.2035  0.9774
 3314SOL    HW110002   1.127   1.965   3.224 -1.5051 -2.1081  1.5970
 3314SOL    HW210003   1.148   2.021   3.363  1.4213  1.2892 -0.0397
 3315SOL     OW10004   1.249   0.018   2.887  0.3026 -0.4937 -0.1726
 3315SOL    HW110005   1.326   0.055   2.843 -1.1687 -0.1621 -2.6764
 3315SOL    HW210006   1.203  -0.029   2.818 -1.6110 -0.9332  1.3204
 3316SOL     OW10007   5.247   1.585   4.139  0.1340  0.0961 -0.2576
 3316SOL    HW110008   5.318   1.629   4.185  3.9572 -2.2156 -3.3157
 3316SOL    HW210009   5.213   1.651   4.078  1.2816  0.6051 -0.3638
 3317SOL     OW10010   1.173   1.364   0.539 -1.0144  0.0107  0.6528
 3317SOL    HW110011   1.133   1.343   0.455 -0.1116  0.0833  0.1974
 3317SOL    HW210012   1.180   1.459   0.539  1.3241 -0.1037 -0.3195
 3318SOL     OW10013   5.047   1.369   3.006 -0.3927  0.0055  0.0359
 3318SOL    HW110014   5.041   1.276   2.983 -0.2035  0.1744 -0.7076
 3318SOL    HW210015   4.966   1.386   3.055 -0.9944 -0.2789 -0.8227
 3319SOL     OW10016   5.123   4.533   4.176 -0.0646 -0.1052  0.1316
 3319SOL    HW110017   5.039   4.578   4.188 -0.0067 -0.0004  0.1370
 3319SOL    HW210018   5.183   4.600   4.144  0.3562  0.1355  1.3484
 3320SOL     OW10019   3.983   3.901   3.643  0.3527 -0.4239  0.1786
 3320SOL    HW110020   4.071   3.931   3.667 -0.1462  0.5434  0.8673
 3320SOL    HW210021   3.958   3.842   3.715  0.5633 -0.9954 -0.2019
 3321SOL     OW10022   3.041   1.694   0.796 -0.2375 -0.1367  0.2918
 3321SOL    HW110023   2.949   1.711   0.775  0.2001  0.1366 -1.6467
 3321SOL    HW210024   3.082   1.780   0.796 -0.0958 -0.1753  1.9504
 3322SOL     OW10025   4.028   2.998   3.996 -0.2262 -0.1717 -0.1600
 3322SOL    HW110026   4.071   3.081   3.974  1.9743 -0.7076  1.7140
 3322SOL    HW210027   4.003   2.961   3.912  0.0401  1.7187 -1.1304
 3323SOL     OW10028   1.040   4.967   3.303 -0.6358  0.3059 -0.5786
 3323SOL    HW110029   1.023   4.873   3.304 -0.1972  0.2160  1.0190
 3323SOL    HW210030   0.978   5.004   3.366  0.5285  0.8131  0.3118
 3324SOL     OW10031   2.475   0.795   0.993 -0.5697  0.2034 -0.0836
 3324SOL    HW110032   2.392   0.797   0.945 -1.4970  1.1607  1.4582
 3324SOL    HW210033   2.488   0.886   1.020  0.5692 -0.0936  0.3916
 3325SOL     OW10034   3.516   3.104   0.682 -0.5979 -0.8402  0.2591
 3325SOL    HW110035   3.509   3.165   0.609  1.5946  0.7119  1.2263
 3325SOL    HW210036   3.438   3.120   0.735 -1.7877 -1.4086 -1.2468
 3326SOL     OW10037   3.486   3.663   2.238  0.1607 -0.3215  0.6346
 3326SOL    HW110038   3.559   3.649   2.298  0.5508 -0.7758  0.0609
 3326SOL    HW210039   3.432   3.730   2.282  0.9033  0.0100  1.0692
 3327SOL     OW10040   2.983   1.669   3.177 -0.0160  0.0822  0.1984
 3327SOL    HW110041   3.029   1.738   3.225 -0.9020 -0.2507  1.5774
 3327SOL    HW210042   2.947   1.612   3.246  0.5354 -1.6598 -0.8952
 3328SOL     OW10043   5.050   4.873   1.718 -0.3828  0.2456 -0.3136
 3328SOL    HW110044   5.103   4.939   1.674 -0.0327 -0.1430 -0.4773
 3328SOL    HW210045   5.014   4.819   1.647  0.1727 -0.3731 -0.1371
 3329SOL     OW10046   4.782   1.590   2.086  0.2843 -0.5260 -0.1462
 3329SOL    HW110047   4.717   1.561   2.150 -0.7957  2.7575  0.4339
 3329SOL    HW210048   4.741   1.574   2.001  0.7435 -2.7282 -0.0079
 3330SOL     OW10049   2.320   0.992   4.081 -0.1329  0.3408 -1.0114
 3330SOL    HW110050   2.275   0.916   4.045 -2.9848  1.3022  0.2550
 3330SOL    HW210051   2.303   0.988   4.175  0.6491  1.9202 -0.7749
 3331SOL     OW10052   1.506   4.504   0.094 -0.7349 -0.5790  0.0178
 3331SOL    HW110053   1.492   4.550   0.012 -0.1732  1.3090  0.9136
 3331SOL    HW210054   1.426   4.520   0.144 -1.2520 -2.0758 -0.2896
 3332SOL     OW10055   1.792   3.379   1.980 -0.0898 -0.2234  0.7760
 3332SOL    HW110056   1.699   3.396   1.964 -0.1505  1.2601  2.4147
 3332SOL    HW210057   1.838   3.436   1.919 -0.2630  0.2003  1.0420
 3333SOL     OW10058   3.741   3.040   2.799 -0.4802 -0.2598 -0.2865
 3333SOL    HW110059   3.762   2.976   2.732 -1.2426 -1.0397  0.2076
 3333SOL    HW210060   3.657   3.012   2.835 -1.5981  1.8512 -1.0577
 3334SOL     OW10061   3.486   3.335   0.528  0.2201  0.7424 -0.4191
 3334SOL    HW110062   3.530   3.328   0.444  1.9821  2.1652  0.3392
 3334SOL    HW210063   3.400   3.372   0.507 -0.6301 -1.8393 -1.8879
 3335SOL     OW10064   3.284   0.708   0.295  0.5368 -0.0456  0.7148
 3335SOL    HW110065   3.337   0.651   0.350 -0.5599 -0.7779  1.0386
 3335SOL    HW210066   3.291   0.794   0.336  1.4059 -0.1435  0.7894
 3336SOL     OW10067   3.318   2.117   1.375  0.4205 -0.2258  0.3784
 3336SOL    HW110068   3.346   2.209   1.375  0.2018 -0.1575  0.6373
 3336SOL    HW210069   3.400   2.067   1.376  0.7762 -0.1309 -3.9023
 3337SOL     OW10070   3.060   3.691   1.407 -0.2362  0.1420  0.2755
 3337SOL    HW110071   3.102   3.726   1.328 -0.3911 -0.2282  0.0238
 3337SOL    HW210072   2.985   3.749   1.422 -0.5552 -0.1453 -0.2014
 3338SOL     OW10073   0.655   4.888   2.746  0.1404  0.4499  0.3743
 3338SOL    HW110074   0.658   4.973   2.703  0.4539 -0.2897 -1.1578
 3338SOL    HW210075   0.744   4.875   2.779  0.5869  0.0143 -0.9136
 3339SOL     OW10076   4.303   1.862   1.444 -0.3071  0.2534  0.0529
 3339SOL    HW110077   4.379   1.836   1.392 -0.5075 -1.2809  0.5021
 3339SOL    HW210078   4.289   1.954   1.420  0.1883 -0.1274 -1.8425
 3340SOL     OW10079   3.765   3.779   3.384 -0.3646  0.0346 -0.2595
 3340SOL    HW110080   3.859   3.777   3.397 -0.7273 -1.7656  3.0957
 3340SOL    HW210081   3.737   3.688   3.395 -2.6012  0.6707 -0.1721
 3341SOL     OW10082   0.732   4.595   2.625  0.1024  0.4046  0.5565
 3341SOL    HW110083   0.747   4.537   2.700  0.3263  1.8748  1.6799
 3341SOL    HW210084   0.637   4.596   2.614  0.1310 -0.9443 -0.1423
 3342SOL     OW10085   1.024   4.488   4.331  0.3755  0.2788 -0.7550
 3342SOL    HW110086   0.980   4.572   4.344 -0.9454 -0.3882 -0.7822
 3342SOL    HW210087   1.089   4.505   4.263 -0.6916  0.9945 -1.6178
 3343SOL     OW10088   3.797   4.079   0.731  0.5546 -0.1748  0.1908
 3343SOL    HW110089   3.889   4.062   0.748  0.3764 -0.7755  0.6066
 3343SOL    HW210090   3.762   3.995   0.701  0.3474  0.2895 -0.9287
 3344SOL     OW10091   1.761   1.654   0.062  0.8502  0.0508 -0.2317
 3344SOL    HW110092   1.776   1.712  -0.013 -1.3163 -1.1683 -1.7061
 3344SOL    HW210093   1.667   1.659   0.077  1.1495 -0.2357  2.0423
 3345SOL     OW10094   2.230   3.645   1.082 -0.0193  0.1565 -0.5164
 3345SOL    HW110095   2.251   3.678   1.170  0.2649 -0.7969 -0.2154
 3345SOL    HW210096   2.135   3.658   1.074 -0.2238 -0.6761  0.3437
 3346SOL     OW10097   2.959   0.360   3.645 -0.0100  0.5533 -0.1835
 3346SOL    HW110098   2.980   0.388   3.734  1.0967  0.3842 -0.3699
 3346SOL    HW210099   2.984   0.434   3.591 -2.3775  1.3901 -0.2462
 3347SOL     OW10100   3.140   2.321   0.411 -0.1087  0.4746  0.1048
 3347SOL    HW110101   3.127   2.231   0.382  0.5868  0.1371  0.7932
 3347SOL    HW210102   3.093   2.374   0.346 -0.4638 -0.3695 -0.3520
 3348SOL     OW10103   0.230   2.011   2.294  0.0731 -0.0591 -0.2564
 3348SOL    HW110104   0.166   1.984   2.360 -2.4166  1.8271 -1.7447
 3348SOL    HW210105   0.211   1.956   2.218  1.9511 -1.2069  0.0407
 3349SOL     OW10106   0.498   0.431   2.412  1.2394 -0.2605 -0.0137
 3349SOL    HW110107   0.593   0.421   2.421  1.0346 -2.3463  0.5098
 3349SOL    HW210108   0.466   0.341   2.409 -0.6742  0.4174 -0.8276
 3350SOL     OW10109   4.283   1.498   3.201  0.3768  0.0930  0.0316
 3350SOL    HW110110   4.282   1.575   3.144 -1.6166 -0.1588 -0.3628
 3350SOL    HW210111   4.306   1.532   3.287 -0.9006  1.2442 -0.0461
 3351SOL     OW10112   0.219   2.790   2.797  0.2530  0.5323  0.5816
 3351SOL    HW110113   0.202   2.708   2.751 -0.4247  0.2285  1.3507
 3351SOL    HW210114   0.294   2.771   2.853 -0.8765 -0.0739  1.9526
 3352SOL     OW10115   1.748   4.219   0.902 -0.2334 -0.2140 -0.3015
 3352SOL    HW110116   1.793   4.245   0.982 -1.3318  1.6667 -0.2518
 3352SOL    HW210117   1.792   4.269   0.833  1.0789 -2.2292 -1.0343
 3353SOL     OW10118   0.562   5.039   0.564  0.0339 -0.0753 -0.4505
 3353SOL    HW110119   0.573   5.053   0.658  0.0679 -3.0219  0.0871
 3353SOL    HW210120   0.536   5.124   0.530 -0.2251  1.0360  2.2554
 3354SOL     OW10121   5.227   3.958   0.931  0.5829 -0.3193  0.1553
 3354SOL    HW110122   5.307   3.914   0.958  1.2614 -0.3701 -1.7744
 3354SOL    HW210123   5.170   3.955   1.008  2.1745 -0.8548  1.3572
 3355SOL     OW10124   2.218   1.017   3.715  0.0173 -0.0983 -0.0684
 3355SOL    HW110125   2.226   1.058   3.629  0.6938 -1.5548 -0.7268
 3355SOL    HW210126   2.238   1.088   3.777  1.2244  0.5668 -1.1654
 3356SOL     OW10127   1.576   1.778   2.783  0.4975  0.2747  0.1042
 3356SOL    HW110128   1.537   1.725   2.852  0.8402  0.8899  0.7838
 3356SOL    HW210129   1.649   1.823   2.825  0.9632  0.3481 -0.7602
 3357SOL     OW10130   0.712   2.364   3.806 -0.1977  0.5501  0.0076
 3357SOL    HW110131   0.672   2.401   3.885 -2.0249 -1.4685  0.1112
 3357SOL    HW210132   0.804   2.353   3.830 -0.7494 -0.2600  2.0092
 3358SOL     OW10133   3.365   2.613   0.701  0.1397  0.6230 -0.6249
 3358SOL    HW110134   3.444   2.667   0.705  0.4773  0.0834  0.1743
 3358SOL    HW210135   3.396   2.524   0.712 -0.4481  0.2744 -1.6969
 3359SOL     OW10136   0.031   0.632   3.383 -0.1281  0.0702  0.1472
 3359SOL    HW110137   0.092   0.656   3.453  0.1311 -0.1205 -0.0117
 3359SOL    HW210138   0.087   0.615   3.308 -0.4481  1.0503 -0.3378
 3360SOL     OW10139   3.596   1.373   4.442  0.3919  0.2092  0.2223
 3360SOL    HW110140   3.562   1.456   4.410  1.6446  1.2020  1.4048
 3360SOL    HW210141   3.679   1.361   4.395  0.4695 -0.1144  0.4400
 3361SOL     OW10142   2.755   0.529   2.340  0.1430  0.1661 -0.0792
 3361SOL    HW110143   2.796   0.503   2.423  1.2649  1.0855 -0.3294
 3361SOL    HW210144   2.663   0.544   2.364  0.6605  1.5234  1.2800
 3362SOL     OW10145   1.079   3.250   1.673  0.3669 -0.6739  0.4572
 3362SOL    HW110146   1.045   3.179   1.726 -1.1060 -0.2181  0.1776
 3362SOL    HW210147   1.144   3.293   1.728 -0.3631 -0.8683  1.4916
 3363SOL     OW10148   0.220   3.846   3.503  0.2812  0.2223 -0.2196
 3363SOL    HW110149   0.306   3.828   3.542  1.2244 -0.6449 -2.5357
 3363SOL    HW210150   0.205   3.773   3.443 -3.0827 -0.7448  1.5670
 3364SOL     OW10151   5.033   1.487   2.752 -0.0487 -0.0907  0.0936
 3364SOL    HW110152   4.959   1.433   2.726  1.5123 -1.8921 -0.9373
 3364SOL    HW210153   5.071   1.441   2.826  0.2971  0.5734  0.3392
 3365SOL     OW10154   0.482   0.648   0.270  0.2335 -0.1162 -0.1436
 3365SOL    HW110155   0.415   0.605   0.323 -2.1792  1.9207 -1.2739
 3365SOL    HW210156   0.561   0.646   0.323 -1.2305 -0.9487  2.1317
 3366SOL     OW10157   4.555   0.582   0.090  0.3259  0.1364  1.0224
 3366SOL    HW110158   4.630   0.595   0.031  1.6531 -3.0702  1.8038
 3366SOL    HW210159   4.480   0.569   0.031  0.8897  0.7033  0.1568
 3367SOL     OW10160   0.604   0.091   2.601  0.1204 -0.0751 -0.1379
 3367SOL    HW110161   0.554   0.095   2.520 -0.5547  1.8312  0.3242
 3367SOL    HW210162   0.585   0.174   2.645  1.6125 -0.4487  1.2966
 3368SOL     OW10163   1.045   4.906   2.552 -0.2712 -0.5444 -0.0190
 3368SOL    HW110164   1.074   4.910   2.460  0.2643 -0.2530  0.1595
 3368SOL    HW210165   0.998   4.823   2.558  0.2432 -0.8710 -0.4039
 3369SOL     OW10166   3.550   4.977   1.405  0.1704 -0.3441  0.3044
 3369SOL    HW110167   3.539   5.069   1.380  0.5709 -0.5539 -0.6944
 3369SOL    HW210168   3.525   4.974   1.498  1.4526  1.0219  0.7277
 3370SOL     OW10169   5.201   2.618   0.934  0.8935 -0.0617 -0.1539
 3370SOL    HW110170   5.140   2.570   0.878 -0.2073  2.2235 -1.0712
 3370SOL    HW210171   5.252   2.671   0.873  0.0646  2.0675  0.8952
 3371SOL     OW10172   2.685   4.035   0.016  0.3027  0.1947  0.4186
 3371SOL    HW110173   2.688   4.008   0.108 -2.3851 -0.5989  0.3494
 3371SOL    HW210174   2.612   4.097   0.011  0.1472 -0.0770 -1.2506
 3372SOL     OW10175   4.472   2.859   1.371  0.0187 -0.4566 -0.4079
 3372SOL    HW110176   4.472   2.769   1.402  0.9250  0.3013  2.1141
 3372SOL    HW210177   4.549   2.898   1.414 -0.9490  1.7600 -0.5625
 3373SOL     OW10178   2.052   1.918   1.275 -0.2004  0.2055  0.3366
 3373SOL    HW110179   2.016   1.942   1.360 -0.2968 -0.3459  0.4528
 3373SOL    HW210180   2.126   1.977   1.263 -0.1828  0.2828  0.8010
 3374SOL     OW10181   0.397   2.159   1.065  0.3234 -0.2953  0.3064
 3374SOL    HW110182   0.492   2.163   1.076  0.2384  1.0150  0.6663
 3374SOL    HW210183   0.385   2.121   0.978  1.2837  2.8413 -1.3406
 3375SOL     OW10184   2.026   2.956   2.092 -0.3438  0.1932 -0.8259
 3375SOL    HW110185   2.007   3.048   2.112 -1.1380 -0.1601  0.1061
 3375SOL    HW210186   2.098   2.960   2.028  0.6549  1.4200  0.3214
 3376SOL     OW10187   4.494   2.438   1.670  0.1251 -0.2977  0.5468
 3376SOL    HW110188   4.424   2.393   1.623  0.2016  0.1934 -0.0564
 3376SOL    HW210189   4.514   2.381   1.745  1.2107 -2.0092 -0.9516
 3377SOL     OW10190   2.652   1.491   0.547  0.3545 -0.0057 -0.6200
 3377SOL    HW110191   2.624   1.582   0.544  1.1055  0.2633  0.0772
 3377SOL    HW210192   2.577   1.441   0.514 -0.9095  0.6787  1.0901
 3378SOL     OW10193   0.356   1.506   2.246  0.7569  0.0217  0.1626
 3378SOL    HW110194   0.341   1.422   2.290 -0.2728 -0.4000 -0.9206
 3378SOL    HW210195   0.435   1.492   2.194  0.7670 -0.1721  0.2287
 3379SOL     OW10196   1.613   1.344   3.524  0.1806  0.4360 -0.0867
 3379SOL    HW110197   1.704   1.367   3.545  0.4678  0.2176 -1.0208
 3379SOL    HW210198   1.620   1.259   3.480 -0.4948  0.3331  0.0023
 3380SOL     OW10199   0.570   3.969   0.667 -0.0798  0.0453  0.3212
 3380SOL    HW110200   0.601   4.047   0.621  2.1830 -1.6201 -1.2131
 3380SOL    HW210201   0.475   3.979   0.671 -0.0027  2.0513 -1.3835
 3381SOL     OW10202   3.440   4.187   2.333  0.5891 -0.6163 -0.3477
 3381SOL    HW110203   3.378   4.150   2.271  0.9313 -0.3371 -0.8559
 3381SOL    HW210204   3.526   4.160   2.301  0.7713 -0.4721  0.0032
 3382SOL     OW10205   0.114   2.183   0.786  0.2165  0.4632 -0.0574
 3382SOL    HW110206   0.035   2.208   0.834 -0.1280 -1.2783  0.3579
 3382SOL    HW210207   0.124   2.251   0.719 -0.9234  1.3749  0.6594
 3383SOL     OW10208   4.749   1.645   3.753 -0.1723  0.2680 -0.2606
 3383SOL    HW110209   4.837   1.609   3.765  0.0788  0.4911 -1.3416
 3383SOL    HW210210   4.691   1.573   3.779  0.3251 -0.8004 -1.9770
 3384SOL     OW10211   0.460   3.779   3.279  0.1067 -0.4050  0.0760
 3384SOL    HW110212   0.373   3.740   3.274  0.2388 -0.6405 -0.4424
 3384SOL    HW210213   0.517   3.706   3.304  0.6351 -1.0047 -2.5987
 3385SOL     OW10214   4.620   0.671   0.329 -0.4282  0.1355  0.2491
 3385SOL    HW110215   4.586   0.613   0.261 -0.0535 -0.7428  0.7924
 3385SOL    HW210216   4.713   0.679   0.310 -0.1477 -0.8164  1.1383
 3386SOL     OW10217   3.629   0.754   0.069  0.1693  0.2619 -0.0039
 3386SOL    HW110218   3.534   0.752   0.058 -0.0131  0.0732  1.4250
 3386SOL    HW210219   3.645   0.830   0.125  0.7281 -0.4467  0.8256
 3387SOL     OW10220   4.459   4.307   0.549  0.0861  0.0042 -0.0537
 3387SOL    HW110221   4.412   4.316   0.466  0.3879  1.5601 -0.0974
 3387SOL    HW210222   4.548   4.282   0.523  0.3999  1.2735 -0.2907
 3388SOL     OW10223   5.264   4.213   3.129 -0.1272 -0.2307  0.3033
 3388SOL    HW110224   5.188   4.254   3.087 -1.6495 -1.2484  1.9401
 3388SOL    HW210225   5.336   4.274   3.112 -0.6582 -0.4271 -3.4765
 3389SOL     OW10226   0.383   2.811   3.063  0.5647  0.2745 -0.1214
 3389SOL    HW110227   0.423   2.824   2.977 -1.8279  0.8012 -1.2518
 3389SOL    HW210228   0.370   2.716   3.069 -2.2493  0.4123 -1.9395
 3390SOL     OW10229   4.799   0.075   0.346 -0.0205  0.5052 -0.8517
 3390SOL    HW110230   4.797   0.027   0.264 -0.0576 -0.5315 -0.2634
 3390SOL    HW210231   4.875   0.132   0.339 -0.5530  1.1151 -1.9683
 3391SOL     OW10232   1.037   3.405   2.540 -0.0038 -0.3578  0.4180
 3391SOL    HW110233   0.991   3.345   2.482 -0.7923  0.4304  0.2171
 3391SOL    HW210234   1.004   3.492   2.517  0.7191  0.1087  1.0747
 3392SOL     OW10235   2.374   1.995   1.580  0.1737  0.1087 -0.8783
 3392SOL    HW110236   2.442   1.984   1.646 -1.4791 -0.2601  0.8566
 3392SOL    HW210237   2.338   2.082   1.597 -0.2927  0.0064 -1.3028
 3393SOL     OW10238   2.972   3.948   4.426 -0.2033  0.4278  0.1891
 3393SOL    HW110239   3.022   3.892   4.366 -0.5238  0.9184 -0.5586
 3393SOL    HW210240   2.932   4.014   4.369 -1.0890  0.4883  0.8623
 3394SOL     OW10241   3.577   3.437   2.104 -0.4255 -1.0481  0.1168
 3394SOL    HW110242   3.548   3.524   2.131 -0.4705 -1.6670  2.1934
 3394SOL    HW210243   3.510   3.377   2.138 -0.2450 -1.9458 -1.0286
 3395SOL     OW10244   2.842   0.434   1.670  0.2374 -0.7060  0.1274
 3395SOL    HW110245   2.797   0.378   1.606 -1.3913  1.7060 -0.9690
 3395SOL    HW210246   2.878   0.506   1.618 -0.6609  1.0633  1.8209
 3396SOL     OW10247   2.956   2.088   0.331 -0.4514  0.1561  0.4040
 3396SOL    HW110248   2.866   2.115   0.312 -0.4924  0.3940  0.9166
 3396SOL    HW210249   2.950   2.044   0.415 -0.4929 -2.0242 -0.6670
 3397SOL     OW10250   0.552   5.043   1.767 -0.4198 -0.4038  0.2782
 3397SOL    HW110251   0.522   5.071   1.681  1.5366  1.8510  0.2437
 3397SOL    HW210252   0.525   5.113   1.827  1.6511  0.0431  0.7758
 3398SOL     OW10253   2.541   0.053   2.595  0.5233 -0.0474 -0.1848
 3398SOL    HW110254   2.482   0.128   2.585 -0.7928 -0.7169  1.7981
 3398SOL    HW210255   2.623   0.091   2.627 -0.6928  0.5286  2.6147
 3399SOL     OW10256   4.189   3.954   3.042 -0.3391 -0.2390 -0.0728
 3399SOL    HW110257   4.124   4.020   3.063  0.7521  1.5869 -2.0941
 3399SOL    HW210258   4.160   3.917   2.958  0.2131 -0.8074 -0.0235
 3400SOL     OW10259   0.286   3.504   0.126 -0.5745  0.2557 -0.1124
 3400SOL    HW110260   0.312   3.587   0.085 -1.2593  0.9783  0.8517
 3400SOL    HW210261   0.213   3.529   0.184 -0.2931 -0.9003  0.7581
 3401SOL     OW10262   1.697   0.431   0.231 -0.6333 -0.3841  0.2942
 3401SOL    HW110263   1.781   0.475   0.222 -0.9685  0.5959  1.6575
 3401SOL    HW210264   1.719   0.342   0.259 -0.0626  0.0102  1.1200
 3402SOL     OW10265   2.204   0.756   3.974 -0.1202 -0.7272  0.1615
 3402SOL    HW110266   2.123   0.796   3.942  1.6116  1.6259 -1.5556
 3402SOL    HW210267   2.218   0.681   3.916  1.4802  1.8410 -3.0981
 3403SOL     OW10268   4.170   2.544   0.685  0.2364 -0.0006 -0.3012
 3403SOL    HW110269   4.240   2.480   0.672  0.8883  1.1759 -3.4721
 3403SOL    HW210270   4.210   2.628   0.664 -1.2719  1.1768  1.2498
 3404SOL     OW10271   5.450   2.137   2.739 -0.6211 -0.2976  0.1159
 3404SOL    HW110272   5.444   2.083   2.818  0.3053  0.7844  0.9620
 3404SOL    HW210273   5.404   2.218   2.763 -0.1501  0.1185 -0.3753
 3405SOL     OW10274   4.024   1.733   0.127 -0.2601  0.1419  0.2722
 3405SOL    HW110275   4.104   1.701   0.085 -0.0312 -0.2752  1.0108
 3405SOL    HW210276   4.004   1.814   0.081 -0.8740 -1.0259 -1.6823
 3406SOL     OW10277   5.248   2.610   1.193  0.0064  0.6398  0.1120
 3406SOL    HW110278   5.222   2.701   1.211 -0.7577  0.8140 -1.6801
 3406SOL    HW210279   5.241   2.602   1.098  0.1654 -1.2724  0.2373
 3407SOL     OW10280   2.348   1.965   1.284  0.0525  0.2415  0.0993
 3407SOL    HW110281   2.421   1.987   1.226  0.7885 -0.0360  0.8900
 3407SOL    HW210282   2.384   1.976   1.372 -0.3552 -1.4534  0.5099
 3408SOL     OW10283   3.125   3.379   1.997 -0.2632 -0.3206  0.5076
 3408SOL    HW110284   3.127   3.474   2.007  1.4426 -0.2396 -0.2363
 3408SOL    HW210285   3.051   3.350   2.050 -0.9436  1.4363  0.5647
 3409SOL     OW10286   2.003   0.876   3.801  0.6166 -0.3561  0.0502
 3409SOL    HW110287   1.956   0.842   3.724 -1.5325  2.0666  0.1533
 3409SOL    HW210288   2.077   0.924   3.764  1.2770 -1.6334 -0.3154
 3410SOL     OW10289   4.820   0.594   2.397 -0.6819  0.0203  0.0099
 3410SOL    HW110290   4.848   0.627   2.312 -1.5782 -0.5743 -0.5293
 3410SOL    HW210291   4.754   0.527   2.377 -4.0758  2.6782  1.1683
 3411SOL     OW10292   3.907   3.309   4.063 -0.3752 -0.4237  0.3867
 3411SOL    HW110293   3.953   3.254   4.127  0.2781 -0.2353  0.0909
 3411SOL    HW210294   3.939   3.280   3.978 -0.9496 -0.4102  0.1628
 3412SOL     OW10295   3.298   0.090   1.241  0.1466 -0.5628 -0.0484
 3412SOL    HW110296   3.358   0.130   1.178 -0.2564 -1.2145 -0.8751
 3412SOL    HW210297   3.319  -0.003   1.238  0.7623 -0.5128  1.5099
 3413SOL     OW10298   5.070   2.733   3.021  0.1240  0.2656  0.2623
 3413SOL    HW110299   5.106   2.749   2.933  1.9253  1.5790  1.1707
 3413SOL    HW210300   5.110   2.801   3.076 -1.8134  0.1663  1.9072
 3414SOL     OW10301   5.061   1.486   3.630 -0.1086  0.9134 -0.3775
 3414SOL    HW110302   5.098   1.467   3.543  0.8500 -0.7989  0.3640
 3414SOL    HW210303   4.981   1.435   3.633 -0.0957  0.9047 -0.2060
 3415SOL     OW10304   2.327   5.155   2.008 -0.2918  0.0359  0.0544
 3415SOL    HW110305   2.350   5.116   2.092  0.8199  0.1174 -0.1943
 3415SOL    HW210306   2.410   5.159   1.960 -0.5523  1.7516 -0.3149
 3416SOL     OW10307   0.417   2.766   3.496  0.0537  0.9545 -0.0170
 3416SOL    HW110308   0.470   2.814   3.559  1.1638  2.2044 -1.8108
 3416SOL    HW210309   0.424   2.816   3.415 -0.3603 -1.1762 -1.4646
 3417SOL     OW10310   2.685   3.144   1.819 -0.6036  0.1680  0.3071
 3417SOL    HW110311   2.714   3.056   1.795 -0.9125  0.2302 -0.2914
 3417SOL    HW210312   2.680   3.142   1.915 -1.0027 -0.5847  0.2736
 3418SOL     OW10313   4.434   1.478   2.447 -0.1730  0.0176 -0.5091
 3418SOL    HW110314   4.424   1.504   2.538  1.8621 -1.2277  0.1308
 3418SOL    HW210315   4.362   1.416   2.432 -1.5957  1.5620 -0.3443
 3419SOL     OW10316   3.706   2.106   1.517  0.3166 -0.1420 -0.3081
 3419SOL    HW110317   3.676   2.101   1.608 -0.7962 -0.2296 -0.6660
 3419SOL    HW210318   3.633   2.073   1.465  0.1592  1.7590 -1.3826
 3420SOL     OW10319   1.841   1.744   0.418 -0.0366  0.2855  0.5761
 3420SOL    HW110320   1.818   1.690   0.494 -0.5095  0.9567  0.9150
 3420SOL    HW210321   1.830   1.686   0.343  1.9862 -0.8990  1.1043
 3421SOL     OW10322   3.260   3.598   3.705 -0.0881 -0.5224 -0.0987
 3421SOL    HW110323   3.324   3.532   3.732 -0.5697 -0.8663  0.2214
 3421SOL    HW210324   3.305   3.648   3.637  0.9543 -0.0040  0.9297
 3422SOL     OW10325   4.875   3.598   2.885 -0.9078  0.1279 -0.4493
 3422SOL    HW110326   4.911   3.678   2.925 -0.1737  0.4483 -1.6977
 3422SOL    HW210327   4.881   3.532   2.954  1.9561  0.2033 -0.4814
 3423SOL     OW10328   5.351   4.387   3.671 -0.6951  0.7457  0.6485
 3423SOL    HW110329   5.379   4.309   3.718  0.4078  0.7284  0.0004
 3423SOL    HW210330   5.410   4.456   3.701  0.6111  0.5557 -1.2540
 3424SOL     OW10331   1.963   1.142   1.554 -0.7088  0.2602  0.2594
 3424SOL    HW110332   2.013   1.196   1.494 -0.8663  2.3379  1.9077
 3424SOL    HW210333   2.028   1.089   1.600 -0.3273  0.7287  0.2571
 3425SOL     OW10334   1.143   0.160   4.063 -0.3640  0.0487  0.4471
 3425SOL    HW110335   1.210   0.142   4.128 -0.7845 -0.0387  0.8611
 3425SOL    HW210336   1.082   0.219   4.107  0.0138  1.0247 -0.2850
 3426SOL     OW10337   0.542   0.116   4.047  0.1930 -0.4632  0.2881
 3426SOL    HW110338   0.578   0.123   4.135  0.6090  1.1605  0.0279
 3426SOL    HW210339   0.492   0.197   4.036 -0.5354 -1.0256 -0.6815
 3427SOL     OW10340   5.218   2.909   1.607  0.3171 -0.7525  0.2683
 3427SOL    HW110341   5.301   2.868   1.583  0.7424  0.5444 -0.5674
 3427SOL    HW210342   5.213   2.987   1.552 -1.1208 -0.4225  0.8252
 3428SOL     OW10343   5.297   1.091   3.095 -0.6331 -0.0117 -0.1471
 3428SOL    HW110344   5.386   1.111   3.066 -0.2722  0.7226  1.4019
 3428SOL    HW210345   5.309   1.043   3.177 -1.6633  0.1843  0.1306
 3429SOL     OW10346   3.904   4.599   4.180  0.5256 -0.2023 -0.9027
 3429SOL    HW110347   3.944   4.516   4.208 -2.4880 -1.4152  0.3100
 3429SOL    HW210348   3.894   4.649   4.260  2.1672  1.3628 -1.6101
 3430SOL     OW10349   0.488   0.745   0.648  0.1173  0.8231  0.2732
 3430SOL    HW110350   0.566   0.692   0.667 -0.4787  0.5336  2.0622
 3430SOL    HW210351   0.512   0.833   0.677  0.4189  1.1682 -0.9372
 3431SOL     OW10352   3.500   1.103   2.703  0.0284 -0.7390  0.6919
 3431SOL    HW110353   3.565   1.038   2.730  2.0040  0.4910 -0.8366
 3431SOL    HW210354   3.524   1.125   2.613 -1.3855  1.1395  0.7151
 3432SOL     OW10355   2.337   4.616   1.136 -0.3830 -0.5123 -0.5284
 3432SOL    HW110356   2.413   4.559   1.140 -1.2148 -1.6824 -0.7741
 3432SOL    HW210357   2.283   4.590   1.211 -1.0687 -0.5106 -1.0101
 3433SOL     OW10358   2.334   3.672   2.896 -0.4347 -0.7020 -0.0695
 3433SOL    HW110359   2.278   3.615   2.949 -1.4468 -0.9073 -1.2960
 3433SOL    HW210360   2.307   3.655   2.806 -0.5348  1.4582 -0.5183
 3434SOL     OW10361   4.757   4.963   0.697 -0.4568  0.2729  0.1374
 3434SOL    HW110362   4.675   5.009   0.679 -0.9199  0.0583  1.6168
 3434SOL    HW210363   4.823   5.015   0.651 -1.5677 -0.4400 -2.4689
 3435SOL     OW10364   1.169   1.709   2.032 -0.1784  0.1809 -0.3910
 3435SOL    HW110365   1.224   1.758   2.093 -1.9278  0.8103  0.7578
 3435SOL    HW210366   1.229   1.677   1.965  1.5619  0.8154  0.8136
 3436SOL     OW10367   2.279   1.620   0.036  0.4439  0.0246  0.2284
 3436SOL    HW110368   2.313   1.578  -0.043  0.7574  1.3194 -0.3420
 3436SOL    HW210369   2.190   1.584   0.046  1.5137 -2.6539  1.1826
 3437SOL     OW10370   2.635   1.520   3.580 -0.4155  0.3290  0.3618
 3437SOL    HW110371   2.610   1.584   3.514 -1.2557  0.2292  0.5636
 3437SOL    HW210372   2.641   1.569   3.662  1.7581  0.6721  0.0470
 3438SOL     OW10373   4.151   0.136   1.095 -0.8940  0.4721 -0.0935
 3438SOL    HW110374   4.181   0.185   1.172  0.4143 -1.0053  0.4040
 3438SOL    HW210375   4.216   0.155   1.027  1.5190 -2.7910  1.0072
 3439SOL     OW10376   4.577   1.073   1.863  0.4526 -0.1185  0.2188
 3439SOL    HW110377   4.518   1.147   1.855 -1.4891 -1.0904  3.5079
 3439SOL    HW210378   4.630   1.093   1.941  4.0661  0.2976 -2.0751
 3440SOL     OW10379   1.993   0.967   3.420  0.2947  0.0293  0.1225
 3440SOL    HW110380   2.060   1.027   3.452 -0.2252  0.3130  0.7066
 3440SOL    HW210381   2.007   0.963   3.325  1.2308 -0.0457  0.2565
 3441SOL     OW10382   0.307   3.499   3.093  0.1844  0.7784  0.3057
 3441SOL    HW110383   0.331   3.547   3.013 -1.9799 -0.2051 -1.0397
 3441SOL    HW210384   0.335   3.409   3.076 -0.8927  0.4219  0.3363
 3442SOL     OW10385   0.929   0.042   3.189  0.0313 -0.1499 -0.1868
 3442SOL    HW110386   0.921  -0.038   3.137  0.4014 -1.1000  1.1495
 3442SOL    HW210387   0.922   0.012   3.280 -3.2578  1.7521  0.3241
 3443SOL     OW10388   5.464   2.518   0.493  0.5753  0.4196  0.4547
 3443SOL    HW110389   5.552   2.514   0.455  0.7991  1.6594  0.7934
 3443SOL    HW210390   5.407   2.477   0.428  1.4715 -0.9392  0.4873
 3444SOL     OW10391   3.875   3.533   2.680 -0.4234  0.5707  0.2677
 3444SOL    HW110392   3.849   3.443   2.700 -0.8624  1.1146  2.4222
 3444SOL    HW210393   3.968   3.526   2.658 -0.2883 -0.3502  1.0561
 3445SOL     OW10394   1.808   4.696   2.192  0.1466  0.2340  0.1263
 3445SOL    HW110395   1.822   4.691   2.098 -0.9370 -0.5425 -0.0203
 3445SOL    HW210396   1.888   4.735   2.227  1.7136 -1.9218 -0.8266
 3446SOL     OW10397   1.000   1.380   4.221  0.3777 -0.4511 -0.2156
 3446SOL    HW110398   0.934   1.449   4.231  2.1799  1.1844  1.1841
 3446SOL    HW210399   1.028   1.387   4.130 -0.8744 -0.7332 -0.6475
 3447SOL     OW10400   2.842   0.862   4.098 -0.4326 -0.8167 -0.0311
 3447SOL    HW110401   2.834   0.926   4.168 -0.0057 -0.0500 -0.6692
 3447SOL    HW210402   2.753   0.829   4.086 -0.6818 -0.2531  0.2199
 3448SOL     OW10403   2.111   1.342   1.413  0.0828 -0.5041 -0.3828
 3448SOL    HW110404   2.050   1.359   1.341 -0.7049  1.2524  0.6384
 3448SOL    HW210405   2.192   1.313   1.370  0.0598  1.6945 -2.0822
 3449SOL     OW10406   4.871   1.492   0.945 -0.2064  0.6968 -0.4017
 3449SOL    HW110407   4.789   1.532   0.975 -1.4888  0.3289 -3.0942
 3449SOL    HW210408   4.899   1.546   0.871  0.5146 -0.6959 -1.1972
 3450SOL     OW10409   3.135   2.701   2.959 -0.6675  0.0502  0.1779
 3450SOL    HW110410   3.145   2.629   3.021 -2.5996 -0.3890  0.0408
 3450SOL    HW210411   3.174   2.669   2.878  3.0164  1.0716  1.3328
 3451SOL     OW10412   2.489   2.305   0.271  0.1146 -0.3535 -0.5949
 3451SOL    HW110413   2.480   2.381   0.329 -1.4402  0.1905 -1.4797
 3451SOL    HW210414   2.545   2.335   0.200  2.2502 -1.1058  0.7015
 3452SOL     OW10415   0.402   1.437   0.357 -0.0192  0.9513 -0.3866
 3452SOL    HW110416   0.361   1.495   0.293 -0.9890  0.1076 -0.5381
 3452SOL    HW210417   0.448   1.497   0.416 -1.4458  1.9288 -0.2198
 3453SOL     OW10418   2.302   5.093   3.824 -0.7202  0.0468  0.1018
 3453SOL    HW110419   2.325   5.161   3.887  0.1774  0.2232 -0.3977
 3453SOL    HW210420   2.252   5.138   3.756  0.2581  0.3103 -0.4578
 3454SOL     OW10421   0.660   0.874   0.119 -0.3926 -0.5339 -0.2630
 3454SOL    HW110422   0.608   0.809   0.167  0.0844 -1.3751 -0.8634
 3454SOL    HW210423   0.652   0.954   0.171 -1.0400 -1.0525  0.4605
 3455SOL     OW10424   4.138   3.158   2.406 -0.1244 -0.2664 -0.7027
 3455SOL    HW110425   4.102   3.128   2.323  1.0063 -0.0566 -1.2919
 3455SOL    HW210426   4.165   3.078   2.451  0.5150 -0.3076 -1.1446
 3456SOL     OW10427   2.417   4.757   2.440 -0.4283  0.1560 -0.0072
 3456SOL    HW110428   2.374   4.839   2.420  0.4282  0.4404 -0.7793
 3456SOL    HW210429   2.428   4.758   2.535  2.0907  2.2862 -0.2043
 3457SOL     OW10430   4.662   4.609   1.063  0.1144 -0.4687  0.0626
 3457SOL    HW110431   4.658   4.660   0.982 -1.9686 -0.5359  0.0563
 3457SOL    HW210432   4.596   4.540   1.052  0.0499 -0.7184  1.6618
 3458SOL     OW10433   1.915   1.577   0.896 -0.3779  0.4489 -0.4832
 3458SOL    HW110434   1.907   1.485   0.918 -2.3273  0.1137 -2.3290
 3458SOL    HW210435   1.932   1.620   0.980 -1.8875 -1.3086  0.8036
 3459SOL     OW10436   4.728   3.627   0.560  0.0150 -0.4825  0.1453
 3459SOL    HW110437   4.677   3.614   0.640  0.6552  0.7144  0.7763
 3459SOL    HW210438   4.670   3.599   0.489 -1.0796 -0.2521  0.9238
 3460SOL     OW10439   1.669   0.751   0.177  0.2642  0.6561 -0.4927
 3460SOL    HW110440   1.758   0.728   0.150 -0.6716 -2.0784 -1.5777
 3460SOL    HW210441   1.622   0.766   0.095 -1.1718 -1.8495 -0.2107
 3461SOL     OW10442   4.822   2.621   1.498  0.0634 -0.6473 -0.0508
 3461SOL    HW110443   4.880   2.693   1.475 -1.6978  0.8330 -0.0443
 3461SOL    HW210444   4.792   2.642   1.587 -1.4490 -0.6744 -0.5219
 3462SOL     OW10445   4.148   1.086   4.328 -0.2791 -0.2870  0.4598
 3462SOL    HW110446   4.108   1.081   4.415 -2.2826  1.6036 -0.2619
 3462SOL    HW210447   4.237   1.052   4.341 -0.7776 -0.8450  3.0483
 3463SOL     OW10448   3.171   3.566   2.384  0.4301 -0.0632 -0.1524
 3463SOL    HW110449   3.237   3.560   2.453 -1.8527  0.2501  2.2788
 3463SOL    HW210450   3.158   3.476   2.356  1.8318 -0.1270 -0.6469
 3464SOL     OW10451   3.696   1.829   3.155  0.1718 -0.4552 -0.3362
 3464SOL    HW110452   3.740   1.829   3.070 -0.7564  0.8127 -0.8404
 3464SOL    HW210453   3.767   1.841   3.219  0.5429  2.6382 -1.1897
 3465SOL     OW10454   4.948   0.945   1.123 -0.2199  0.4608 -0.4879
 3465SOL    HW110455   5.043   0.958   1.117  0.1544 -2.1132 -2.0489
 3465SOL    HW210456   4.912   1.005   1.058  0.2878  1.6069  0.2560
 3466SOL     OW10457   2.407   3.278   1.155  0.3181  0.2253  0.1572
 3466SOL    HW110458   2.407   3.330   1.236  1.2718  1.0002 -0.3179
 3466SOL    HW210459   2.345   3.324   1.098  1.2220  0.9342 -0.2924
 3467SOL     OW10460   0.526   4.569   0.475 -0.0691  0.0495  0.2816
 3467SOL    HW110461   0.478   4.567   0.558 -0.5853 -2.5469  0.0292
 3467SOL    HW210462   0.601   4.625   0.492 -1.1602  1.0964  1.9012
 3468SOL     OW10463   0.790   2.067   4.387 -0.1198  0.2374 -0.1505
 3468SOL    HW110464   0.867   2.114   4.354  0.2282  0.3673  0.7931
 3468SOL    HW210465   0.800   1.978   4.352  0.7662  0.1043  0.3960
 3469SOL     OW10466   0.722   0.020   3.404  0.1215 -0.0189 -0.2220
 3469SOL    HW110467   0.795   0.012   3.466 -1.5499  0.1112  1.8763
 3469SOL    HW210468   0.658  -0.045   3.435 -2.4192  2.7104  0.6624
 3470SOL     OW10469   2.334   3.184   2.584  0.1773  0.3446 -0.4586
 3470SOL    HW110470   2.285   3.190   2.665 -0.1017  0.6046 -0.6435
 3470SOL    HW210471   2.358   3.275   2.564  2.4636  0.0712  0.6716
 3471SOL     OW10472   5.051   3.500   0.890  0.3485  0.6207  0.1062
 3471SOL    HW110473   5.134   3.463   0.860  0.5651  1.0611  0.1472
 3471SOL    HW210474   5.011   3.431   0.942  0.0678 -0.0814 -1.0135
 3472SOL     OW10475   4.623   4.316   1.239 -0.0544 -0.1686 -0.0665
 3472SOL    HW110476   4.705   4.361   1.217 -0.0276 -0.1407  0.0915
 3472SOL    HW210477   4.632   4.230   1.197  1.2508 -1.2338  2.2054
 3473SOL     OW10478   4.418   0.295   1.585  0.0192 -0.2625 -0.0214
 3473SOL    HW110479   4.484   0.335   1.528  0.7266 -0.5826  0.5536
 3473SOL    HW210480   4.469   0.251   1.653 -0.7997 -0.0838  0.7275
 3474SOL     OW10481   0.766   1.719   3.442 -0.3063  0.0634 -0.3336
 3474SOL    HW110482   0.777   1.668   3.522  1.0470  0.1592 -0.4511
 3474SOL    HW210483   0.791   1.660   3.371 -0.1983  0.4019 -0.5838
 3475SOL     OW10484   0.558   2.970   1.700  0.1221 -0.2139 -0.1293
 3475SOL    HW110485   0.617   3.045   1.694 -0.5308  0.4149  0.9998
 3475SOL    HW210486   0.471   3.009   1.706 -0.2872 -1.0943 -0.2066
 3476SOL     OW10487   1.883   4.866   1.802  0.1791 -0.1613 -0.3323
 3476SOL    HW110488   1.884   4.845   1.709 -2.0037 -1.3302 -0.1665
 3476SOL    HW210489   1.808   4.926   1.812  1.0197  0.7895  0.5318
 3477SOL     OW10490   4.631   4.480   3.644 -0.2270  0.1857 -0.2650
 3477SOL    HW110491   4.613   4.573   3.636 -0.5365  0.1167 -0.3754
 3477SOL    HW210492   4.715   4.475   3.691 -1.1363  0.4894  1.4820
 3478SOL     OW10493   4.168   1.256   1.087 -0.4116 -0.8017 -0.2105
 3478SOL    HW110494   4.139   1.243   0.996 -0.6821 -1.2982 -0.0587
 3478SOL    HW210495   4.262   1.272   1.080 -0.7155  0.9739 -0.7341
 3479SOL     OW10496   1.378   4.564   2.272  0.0516 -0.0316  0.1913
 3479SOL    HW110497   1.436   4.585   2.345  1.1523 -4.6755  0.9983
 3479SOL    HW210498   1.291   4.555   2.312  0.2712 -0.5914  0.5505
 3480SOL     OW10499   4.687   2.652   2.884  0.2191 -0.0465  0.1501
 3480SOL    HW110500   4.677   2.741   2.918  0.8377 -0.6997  2.1908
 3480SOL    HW210501   4.741   2.607   2.950  0.3098 -1.8098 -1.0580
 3481SOL     OW10502   1.736   3.327   0.914 -0.2414 -0.5396 -0.3439
 3481SOL    HW110503   1.689   3.248   0.941 -0.4085 -0.5801 -0.7524
 3481SOL    HW210504   1.667   3.389   0.892 -0.1071 -0.3735 -0.2945
 3482SOL     OW10505   0.859   1.186   2.606  0.0131 -0.1144 -0.1010
 3482SOL    HW110506   0.801   1.214   2.535 -0.7720 -1.3149  0.0455
 3482SOL    HW210507   0.933   1.143   2.561  0.5406  0.9214 -0.2601
 3483SOL     OW10508   0.123   1.503   2.613 -0.0026  0.5077 -0.2603
 3483SOL    HW110509   0.100   1.568   2.679  0.4951 -0.5036  0.9358
 3483SOL    HW210510   0.102   1.546   2.530  0.0454  2.0847  0.4955
 3484SOL     OW10511   3.590   4.790   1.181 -0.1190  0.0743 -0.1910
 3484SOL    HW110512   3.511   4.816   1.133 -1.7406 -1.9518  1.2158
 3484SOL    HW210513   3.590   4.845   1.260  0.4271  0.6984 -0.6061
 3485SOL     OW10514   2.477   2.534   2.560 -0.1956  0.2114 -0.5788
 3485SOL    HW110515   2.522   2.511   2.641 -0.5064  2.2717  0.2080
 3485SOL    HW210516   2.395   2.574   2.587  0.3027  2.2081 -1.8271
 3486SOL     OW10517   5.437   4.793   2.298  0.3375 -0.2126  0.3695
 3486SOL    HW110518   5.371   4.750   2.244 -1.3015  0.7981  1.4618
 3486SOL    HW210519   5.411   4.885   2.300  3.6156  0.9656 -1.7231
 3487SOL     OW10520   0.997   4.131   2.556 -0.3935 -0.2263 -0.0647
 3487SOL    HW110521   0.902   4.127   2.553 -0.4934 -0.1590  1.8076
 3487SOL    HW210522   1.017   4.183   2.635  1.1792 -0.6802 -0.1196
 3488SOL     OW10523   1.222   2.795   3.470  0.0035  0.3128 -0.2078
 3488SOL    HW110524   1.311   2.821   3.448  0.5567 -0.5397  0.9009
 3488SOL    HW210525   1.192   2.864   3.530  1.5821 -1.5092  2.9844
 3489SOL     OW10526   3.819   2.848   0.934  0.1285  0.4902  0.0591
 3489SOL    HW110527   3.799   2.941   0.922  0.9265  0.6188 -0.3461
 3489SOL    HW210528   3.897   2.847   0.989  0.7543  0.1104 -0.8015
 3490SOL     OW10529   1.584   3.290   2.473  0.5960 -0.7415 -0.0460
 3490SOL    HW110530   1.493   3.277   2.447  0.6682 -0.4052 -0.4754
 3490SOL    HW210531   1.632   3.300   2.391  1.1383 -1.5968  0.1497
 3491SOL     OW10532   4.382   3.892   1.121  0.6237 -0.5665 -0.6409
 3491SOL    HW110533   4.297   3.847   1.116  0.9802 -1.3479  0.0668
 3491SOL    HW210534   4.442   3.836   1.072  0.9639 -0.6054 -0.1909
 3492SOL     OW10535   0.404   1.119   4.270 -0.3414  0.1398  0.6701
 3492SOL    HW110536   0.349   1.119   4.192  1.7598 -0.1659 -0.8944
 3492SOL    HW210537   0.454   1.037   4.265  2.1933  1.5685  0.5105
 3493SOL     OW10538   0.065   0.013   3.595  0.0103  0.7412 -0.2220
 3493SOL    HW110539  -0.016   0.050   3.559  0.2103  1.8259  0.4002
 3493SOL    HW210540   0.043  -0.008   3.686  0.9608  2.9829  0.5971
 3494SOL     OW10541   1.605   0.640   3.052  0.0102  0.2720  0.3657
 3494SOL    HW110542   1.517   0.643   3.090 -0.1835 -1.8879  0.1872
 3494SOL    HW210543   1.590   0.649   2.958 -0.1790 -1.4095  0.2102
 3495SOL     OW10544   1.054   4.326   0.831 -0.2030  0.6203  0.1210
 3495SOL    HW110545   1.065   4.294   0.741  0.9686 -1.3762  0.9188
 3495SOL    HW210546   1.118   4.396   0.839 -0.0153  0.5264 -0.4669
 3496SOL     OW10547   2.055   4.735   2.312  0.5192  0.0322 -0.3546
 3496SOL    HW110548   2.048   4.705   2.402 -1.8634 -0.0596 -0.5082
 3496SOL    HW210549   2.132   4.690   2.277  1.2092 -0.2760  1.4808
 3497SOL     OW10550   1.169   4.465   3.931 -0.8084 -0.0764 -0.0409
 3497SOL    HW110551   1.197   4.551   3.899 -2.4459  0.2065 -0.8360
 3497SOL    HW210552   1.169   4.410   3.853  1.5475 -1.2372  0.6794
 3498SOL     OW10553   0.995   1.858   0.635 -0.2370  0.1959  0.7090
 3498SOL    HW110554   0.907   1.869   0.600  0.1163  0.5970 -0.0511
 3498SOL    HW210555   0.980   1.828   0.725 -1.1481  0.6882  0.7380
 3499SOL     OW10556   2.425   1.925   2.335  0.0422  0.4397 -0.4187
 3499SOL    HW110557   2.459   1.986   2.401 -2.1148  0.1720  1.0481
 3499SOL    HW210558   2.430   1.974   2.253  1.9210  1.1273  0.0460
 3500SOL     OW10559   2.032   3.346   3.999 -0.3277  0.2598  0.0990
 3500SOL    HW110560   2.079   3.430   4.001  0.2492  0.0026 -1.5514
 3500SOL    HW210561   2.037   3.314   4.089  0.5719  1.3808  0.4720
 3501SOL     OW10562   1.746   4.595   0.933 -0.3827  0.0613  0.0579
 3501SOL    HW110563   1.685   4.605   1.006 -1.0492 -0.1778 -0.4588
 3501SOL    HW210564   1.828   4.634   0.964 -0.2322 -1.2888  1.4548
 3502SOL     OW10565   4.548   4.871   0.154 -0.1734  0.5808  0.2578
 3502SOL    HW110566   4.587   4.855   0.240 -1.1244  0.2605  0.6490
 3502SOL    HW210567   4.461   4.904   0.174 -0.3678  0.5965 -0.5879
 3503SOL     OW10568   0.791   3.947   2.876  0.5328  0.1903  0.0854
 3503SOL    HW110569   0.857   3.907   2.819  0.8998 -0.7832  1.1615
 3503SOL    HW210570   0.836   4.019   2.919  0.5829  0.2064  0.0060
 3504SOL     OW10571   3.494   3.911   0.409 -0.1721 -0.1990  0.3315
 3504SOL    HW110572   3.506   3.932   0.317 -0.2288 -0.5727  0.2375
 3504SOL    HW210573   3.549   3.974   0.456 -0.5054  0.2987  0.0674
 3505SOL     OW10574   0.805   4.622   1.596  0.0380 -0.3751  0.1650
 3505SOL    HW110575   0.885   4.634   1.648 -0.6917 -2.6638  2.0116
 3505SOL    HW210576   0.744   4.688   1.629  0.9489  1.0711 -0.9289
 3506SOL     OW10577   0.211   2.748   2.434 -0.1704  0.3391 -0.1693
 3506SOL    HW110578   0.234   2.738   2.341  0.9789 -1.9561  0.2994
 3506SOL    HW210579   0.292   2.778   2.475 -0.5043  0.7240  0.2195
 3507SOL     OW10580   2.702   2.392   1.606 -0.0080  0.1241 -0.3387
 3507SOL    HW110581   2.758   2.323   1.641  1.3882  1.2403 -0.2819
 3507SOL    HW210582   2.645   2.417   1.679  0.7405  0.2747  0.2045
 3508SOL     OW10583   1.622   2.880   2.564  0.0530 -0.0035  0.4848
 3508SOL    HW110584   1.707   2.910   2.531 -0.7470  0.7384 -1.0516
 3508SOL    HW210585   1.642   2.830   2.643  2.0601 -1.1553 -0.6654
 3509SOL     OW10586   2.981   4.562   1.894  0.2259  0.0070  0.0573
 3509SOL    HW110587   2.927   4.572   1.972  0.8338 -1.1519  0.6464
 3509SOL    HW210588   3.060   4.517   1.925 -0.4709 -2.5182 -1.5835
 3510SOL     OW10589   4.326   4.045   4.448  0.4674 -0.3252  0.9192
 3510SOL    HW110590   4.260   4.061   4.380  2.3189 -1.2951 -1.2453
 3510SOL    HW210591   4.292   3.972   4.498 -0.8706  0.3002  0.9582
 3511SOL     OW10592   0.427   3.054   2.436 -0.2843 -0.5975  0.8679
 3511SOL    HW110593   0.464   2.966   2.425 -1.3583 -1.0718  0.9779
 3511SOL    HW210594   0.482   3.094   2.502  1.0481 -0.6995 -0.1333
 3512SOL     OW10595   0.709   2.953   3.170 -0.0286 -0.2567  0.0788
 3512SOL    HW110596   0.726   3.012   3.097  0.5616 -2.1861 -1.4135
 3512SOL    HW210597   0.745   2.869   3.142  1.2898 -0.8094  3.0796
 3513SOL     OW10598   4.005   0.497   4.282 -0.7523  0.0729  0.3352
 3513SOL    HW110599   4.030   0.420   4.230 -0.7169 -0.6367  1.3655
 3513SOL    HW210600   4.051   0.485   4.366 -2.8188 -0.1715  1.5025
 3514SOL     OW10601   0.859   1.350   1.518 -0.7829 -0.3973  0.0479
 3514SOL    HW110602   0.897   1.313   1.597  1.1387 -0.1702 -0.7085
 3514SOL    HW210603   0.776   1.305   1.507 -0.9558 -0.6225  2.0287
 3515SOL     OW10604   3.005   0.987   0.780 -0.1588  0.1553  0.1990
 3515SOL    HW110605   3.014   0.917   0.715  0.5827  0.0488  0.4070
 3515SOL    HW210606   2.918   0.975   0.817  0.5088 -1.5787  1.2982
 3516SOL     OW10607   2.071   3.952   0.215  0.2305 -0.4373  0.3482
 3516SOL    HW110608   2.153   3.945   0.265 -0.6686  0.1106  1.9697
 3516SOL    HW210609   2.003   3.952   0.282 -1.2487 -2.7849 -1.0304
 3517SOL     OW10610   0.916   3.505   4.354  0.3345  0.3544  0.3955
 3517SOL    HW110611   0.926   3.451   4.433 -1.0942  1.8595  1.6912
 3517SOL    HW210612   0.851   3.571   4.379  0.0823  1.0779 -1.9688
 3518SOL     OW10613   3.917   0.236   1.489  0.3173 -0.3455  0.8161
 3518SOL    HW110614   4.007   0.251   1.518  0.8091  0.1132 -0.8177
 3518SOL    HW210615   3.925   0.223   1.394 -1.5048  1.3450  0.3660
 3519SOL     OW10616   0.605   1.617   2.449  0.1925 -0.2703 -0.1257
 3519SOL    HW110617   0.624   1.588   2.360 -1.5190  0.2828 -0.7096
 3519SOL    HW210618   0.562   1.543   2.491  1.8486 -0.8743  0.5982
 3520SOL     OW10619   0.287   3.508   4.016  0.3509  0.1299 -1.0284
 3520SOL    HW110620   0.317   3.450   4.086 -0.3141 -0.3720 -1.1431
 3520SOL    HW210621   0.199   3.476   3.995 -0.5620  1.9842 -0.1999
 3521SOL     OW10622   3.447   2.574   1.610  0.4079  0.4376 -0.3166
 3521SOL    HW110623   3.531   2.606   1.579  0.3842  0.5116 -0.3041
 3521SOL    HW210624   3.413   2.644   1.666  1.3509 -0.4793  1.4999
 3522SOL     OW10625   1.728   2.010   0.064 -0.4120  0.1735  0.2771
 3522SOL    HW110626   1.743   2.009  -0.030  0.1570 -0.5947  0.3632
 3522SOL    HW210627   1.633   2.013   0.074 -0.5129 -0.8160 -0.3316
 3523SOL     OW10628   5.243   3.386   2.051  0.2113 -1.0194 -0.6820
 3523SOL    HW110629   5.337   3.400   2.064  0.0505  1.1847 -1.4031
 3523SOL    HW210630   5.235   3.366   1.958 -0.1156  0.1858 -0.9361
 3524SOL     OW10631   0.302   2.133   0.214  0.3407 -0.3833  0.2742
 3524SOL    HW110632   0.335   2.047   0.188 -0.4512 -1.2250  1.8871
 3524SOL    HW210633   0.336   2.146   0.303  0.6453  1.0992 -0.0364
 3525SOL     OW10634   5.122   0.618   3.069 -0.1662 -0.3214 -0.7964
 3525SOL    HW110635   5.122   0.668   2.987  0.7460  0.1912 -0.4942
 3525SOL    HW210636   5.131   0.685   3.138  0.5401 -0.8521 -0.3633
 3526SOL     OW10637   4.162   0.448   3.910  1.3291 -0.7094 -0.1161
 3526SOL    HW110638   4.211   0.368   3.927  1.0199 -1.0467 -0.8021
 3526SOL    HW210639   4.202   0.485   3.832  1.5774 -0.1052  0.2919
 3527SOL     OW10640   5.157   2.295   2.535  0.0647 -0.3547 -0.2492
 3527SOL    HW110641   5.236   2.333   2.573  0.6165 -1.4524 -0.2713
 3527SOL    HW210642   5.086   2.328   2.590  0.6844 -0.5284  0.6777
 3528SOL     OW10643   1.880   0.221   0.344 -0.0425 -0.1831 -0.2503
 3528SOL    HW110644   1.921   0.221   0.431 -1.4119  0.5268  0.4327
 3528SOL    HW210645   1.805   0.162   0.354 -0.3947  0.1599 -0.8686
 3529SOL     OW10646   0.691   3.014   0.658 -0.0542  0.1289 -0.1023
 3529SOL    HW110647   0.658   2.935   0.701  0.1907 -1.1524 -2.1465
 3529SOL    HW210648   0.644   3.018   0.575 -0.2130  2.2943  0.0303
 3530SOL     OW10649   4.024   2.996   3.330 -0.1487  0.2639 -0.0294
 3530SOL    HW110650   4.115   2.968   3.320 -0.3412 -0.8430  1.0791
 3530SOL    HW210651   4.030   3.080   3.376  0.2912 -0.9171  2.2268
 3531SOL     OW10652   0.209   0.682   3.584  0.9055 -0.4094 -0.2949
 3531SOL    HW110653   0.293   0.728   3.578  0.4151  0.6878  0.8544
 3531SOL    HW210654   0.224   0.614   3.649  0.7239  0.2552  0.4620
 3532SOL     OW10655   4.751   2.565   2.617  0.1512 -0.0718 -0.4756
 3532SOL    HW110656   4.716   2.584   2.705  0.5019 -2.9917  0.3996
 3532SOL    HW210657   4.673   2.546   2.564  0.0201  0.3024 -0.4182
 3533SOL     OW10658   0.768   3.499   2.896 -0.0614 -0.2073  0.3929
 3533SOL    HW110659   0.844   3.441   2.890 -1.8136 -2.9552  2.3048
 3533SOL    HW210660   0.724   3.472   2.976 -2.1271  2.4991  0.2839
 3534SOL     OW10661   3.513   4.103   3.850 -0.2236  0.0146 -0.2431
 3534SOL    HW110662   3.608   4.098   3.839  0.0114 -0.5499  1.6721
 3534SOL    HW210663   3.495   4.197   3.856  0.4103  0.1014  0.6051
 3535SOL     OW10664   5.358   4.563   0.452  0.1172  0.3956 -0.3195
 3535SOL    HW110665   5.379   4.634   0.514  0.2861 -0.2726  0.4095
 3535SOL    HW210666   5.289   4.513   0.497 -0.4168  0.4328 -1.0872
 3536SOL     OW10667   4.072   0.325   2.054 -0.3532  0.5134  0.3250
 3536SOL    HW110668   4.138   0.371   2.004 -1.1611  1.3666  0.0072
 3536SOL    HW210669   3.990   0.343   2.008 -0.6424 -1.7628 -0.1690
 3537SOL     OW10670   1.538   4.314   0.535 -0.3343  0.7169 -0.0501
 3537SOL    HW110671   1.587   4.347   0.610  0.5946  0.7576 -0.6537
 3537SOL    HW210672   1.577   4.228   0.516 -0.1326  0.9811 -0.8717
 3538SOL     OW10673   3.306   3.185   0.847  0.3446 -0.3489  0.5210
 3538SOL    HW110674   3.221   3.205   0.807  0.2446 -1.7498 -0.0304
 3538SOL    HW210675   3.301   3.224   0.935  0.4999  2.6470 -0.6866
 3539SOL     OW10676   2.519   4.382   1.029 -0.1011  0.2181 -0.0356
 3539SOL    HW110677   2.596   4.350   0.983 -0.5414  0.4037 -0.9384
 3539SOL    HW210678   2.515   4.330   1.109  1.2501  0.5761  0.2896
 3540SOL     OW10679   5.405   3.215   2.672 -0.3410  0.2187  0.0574
 3540SOL    HW110680   5.338   3.239   2.736 -0.1733  0.9378 -0.0258
 3540SOL    HW210681   5.371   3.248   2.589  0.9738  2.3714  0.3002
 3541SOL     OW10682   4.400   1.056   2.765 -0.6619 -0.4719  0.4946
 3541SOL    HW110683   4.388   1.128   2.826 -0.0696  0.0368  0.0247
 3541SOL    HW210684   4.370   0.979   2.813 -1.0075  0.0383  1.1149
 3542SOL     OW10685   5.034   1.607   1.590 -0.5530 -0.0084  0.1254
 3542SOL    HW110686   5.065   1.566   1.671  1.8918  1.5664  0.0871
 3542SOL    HW210687   4.998   1.534   1.539  0.5569 -1.5426  1.4058
 3543SOL     OW10688   4.746   0.091   1.579 -0.1285  0.0035  0.5092
 3543SOL    HW110689   4.754   0.024   1.511 -1.6021 -1.5080  1.7162
 3543SOL    HW210690   4.836   0.118   1.598  0.2998  1.0764 -2.5263
 3544SOL     OW10691   2.554   2.011   0.139  0.0966  0.1948  0.3664
 3544SOL    HW110692   2.532   2.061   0.061 -3.0394 -0.8177  0.4726
 3544SOL    HW210693   2.548   2.075   0.210 -0.5760  0.3848  0.1461
 3545SOL     OW10694   4.659   0.514   1.465  0.4991 -0.0356  0.1564
 3545SOL    HW110695   4.731   0.480   1.412  0.4705  0.9435 -0.5496
 3545SOL    HW210696   4.702   0.570   1.531  0.4246  0.1118  0.0808
 3546SOL     OW10697   4.663   0.919   0.630 -0.3813 -0.2512 -0.1108
 3546SOL    HW110698   4.738   0.958   0.586 -1.5099  1.0987 -0.9271
 3546SOL    HW210699   4.601   0.899   0.559 -1.2865 -0.2044  0.6444
 3547SOL     OW10700   4.747   1.358   2.416  0.6090  0.7632  0.1147
 3547SOL    HW110701   4.680   1.421   2.391 -1.9094 -1.5909  0.4661
 3547SOL    HW210702   4.793   1.400   2.489  0.6545  3.0966 -1.1526
 3548SOL     OW10703   4.249   4.991   0.495 -0.1659  0.4027  0.4079
 3548SOL    HW110704   4.177   5.053   0.500 -0.2365  0.5050 -1.1915
 3548SOL    HW210705   4.221   4.916   0.548 -1.0664  0.8084  0.5110
 3549SOL     OW10706   4.662   4.819   0.439 -0.7064  0.3589  0.0715
 3549SOL    HW110707   4.584   4.769   0.464 -0.3068 -0.3903 -0.1296
 3549SOL    HW210708   4.730   4.752   0.428  0.0021  1.0127  0.3967
 3550SOL     OW10709   0.207   0.392   4.391  0.3544 -0.3894  0.2831
 3550SOL    HW110710   0.195   0.465   4.451 -1.1168  1.1991 -1.7466
 3550SOL    HW210711   0.300   0.390   4.372  0.5712  0.2135  1.2698
 3551SOL     OW10712   1.324   2.172   4.346 -0.1989  0.1292  0.7023
 3551SOL    HW110713   1.345   2.193   4.255  2.9415 -1.6368  0.8796
 3551SOL    HW210714   1.276   2.089   4.341  1.2857 -0.7597  0.6528
 3552SOL     OW10715   3.389   2.858   2.272 -0.2204  0.4083 -0.4987
 3552SOL    HW110716   3.352   2.769   2.266  1.5849 -0.4735  0.5874
 3552SOL    HW210717   3.465   2.856   2.214  0.0846  1.0979 -0.1266
 3553SOL     OW10718   4.765   4.573   1.558 -0.7614  0.3294 -0.2658
 3553SOL    HW110719   4.704   4.533   1.619 -2.3599  1.3071 -1.1548
 3553SOL    HW210720   4.792   4.502   1.500 -1.2016 -0.0703  0.0160
 3554SOL     OW10721   1.208   3.715   0.231  0.1204 -0.4533  0.0290
 3554SOL    HW110722   1.233   3.675   0.147  0.1340  0.5961 -0.4755
 3554SOL    HW210723   1.122   3.755   0.213  0.3376  0.1763  0.3863
 3555SOL     OW10724   4.538   2.671   0.128  0.1632 -0.3157  0.5469
 3555SOL    HW110725   4.444   2.657   0.119  0.1281 -1.3169  2.0620
 3555SOL    HW210726   4.547   2.759   0.163 -0.2553 -0.4305  0.9514
 3556SOL     OW10727   1.962   4.449   0.365  0.1107 -0.1845 -0.3147
 3556SOL    HW110728   1.946   4.386   0.435  1.1844 -0.7589 -0.5786
 3556SOL    HW210729   1.874   4.474   0.335 -0.3324 -0.9361  0.3333
 3557SOL     OW10730   1.148   3.541   0.956 -0.1399  0.5681  0.4437
 3557SOL    HW110731   1.063   3.576   0.984 -0.9599 -1.6800  1.0253
 3557SOL    HW210732   1.140   3.531   0.861 -0.4467  0.5765  0.4675
 3558SOL     OW10733   5.234   3.409   3.783 -0.9391 -0.4829 -0.2072
 3558SOL    HW110734   5.258   3.494   3.747  1.3162 -0.3238  1.4820
 3558SOL    HW210735   5.140   3.416   3.801 -1.0439  1.1874 -1.2357
 3559SOL     OW10736   4.155   4.996   4.063  0.5778  0.4327 -0.4171
 3559SOL    HW110737   4.175   4.944   3.986 -0.6377  0.4628 -0.7766
 3559SOL    HW210738   4.131   5.082   4.028  0.8981  0.7211  0.0577
 3560SOL     OW10739   4.436   2.400   3.757  0.1639 -0.3088 -0.0522
 3560SOL    HW110740   4.357   2.454   3.750  1.0263  0.9827  0.0038
 3560SOL    HW210741   4.411   2.330   3.818 -1.3677 -0.7300 -1.0929
 3561SOL     OW10742   5.113   4.589   4.441  0.2752  0.2378 -0.6071
 3561SOL    HW110743   5.123   4.590   4.346  2.4551  3.1472 -0.5152
 3561SOL    HW210744   5.083   4.678   4.462 -0.1884 -0.3539  1.4233
 3562SOL     OW10745   5.036   2.085   1.449 -0.2800  0.4610 -0.1769
 3562SOL    HW110746   5.050   1.991   1.462  0.9440  0.2277 -2.5800
 3562SOL    HW210747   5.122   2.118   1.421 -1.2357  1.8360 -1.6279
 3563SOL     OW10748   4.721   3.205   2.367  0.3561 -0.0724  0.4290
 3563SOL    HW110749   4.726   3.141   2.295  1.9370  0.0014  0.4416
 3563SOL    HW210750   4.727   3.290   2.324 -0.1081  0.0206  0.5440
 3564SOL     OW10751   0.320   1.058   4.000  0.3900 -0.0514  1.2343
 3564SOL    HW110752   0.229   1.062   3.972  1.6093  1.1110 -3.3660
 3564SOL    HW210753   0.341   0.965   4.002 -0.1385 -0.2549 -0.8887
 3565SOL     OW10754   3.059   5.009   0.827 -0.3615  0.2819 -0.2985
 3565SOL    HW110755   2.986   4.969   0.875 -0.7179  0.8091 -0.3948
 3565SOL    HW210756   3.028   5.097   0.806  0.0643  0.2941 -0.8824
 3566SOL     OW10757   3.214   0.408   2.475  0.1258 -0.5705  0.1500
 3566SOL    HW110758   3.165   0.415   2.557 -0.1302 -2.3333  0.1742
 3566SOL    HW210759   3.305   0.395   2.503  0.4070  1.0273  0.1062
 3567SOL     OW10760   1.342   1.634   1.855  0.1959  0.0747 -0.2371
 3567SOL    HW110761   1.360   1.639   1.761 -0.3044 -2.5012 -0.5434
 3567SOL    HW210762   1.429   1.633   1.895  0.4099  2.1061 -0.5461
 3568SOL     OW10763   1.120   0.421   2.857  0.4351 -0.6266 -1.0824
 3568SOL    HW110764   1.150   0.370   2.932  0.0762 -1.1286 -1.2753
 3568SOL    HW210765   1.196   0.476   2.834  0.7236 -0.8531 -0.6861
 3569SOL     OW10766   5.416   3.244   2.291 -0.8631  0.5608  0.3772
 3569SOL    HW110767   5.325   3.259   2.263 -0.6955  1.3809  0.2239
 3569SOL    HW210768   5.469   3.286   2.222 -0.2939 -1.5849 -0.5669
 3570SOL     OW10769   4.877   2.329   2.694  0.1985 -0.2558 -0.1639
 3570SOL    HW110770   4.950   2.368   2.742  1.1595  1.7617 -2.9291
 3570SOL    HW210771   4.829   2.405   2.659 -2.6959 -1.5446  0.7425
 3571SOL     OW10772   2.539   4.440   3.270  0.0065 -0.3664  0.7640
 3571SOL    HW110773   2.561   4.527   3.302 -0.0884 -0.2829  0.6002
 3571SOL    HW210774   2.489   4.400   3.341  0.5946 -0.5164  1.0944
 3572SOL     OW10775   0.089   5.038   3.719  0.2454  0.3376  0.1532
 3572SOL    HW110776   0.020   4.998   3.667 -0.0914  0.3314  0.5977
 3572SOL    HW210777   0.151   4.966   3.734 -0.2537  0.0170  0.7704
 3573SOL     OW10778   3.487   1.571   3.422 -0.1262 -0.2136 -0.2980
 3573SOL    HW110779   3.439   1.567   3.504  0.5072 -0.1748  0.0850
 3573SOL    HW210780   3.445   1.642   3.373 -0.1915  0.1024  0.2068
 3574SOL     OW10781   4.319   1.752   2.177  0.0651 -0.2253  0.0014
 3574SOL    HW110782   4.260   1.677   2.174 -1.3447  0.7946  0.8345
 3574SOL    HW210783   4.262   1.828   2.161  1.1593  0.7896  0.7614
 3575SOL     OW10784   3.176   2.404   1.003  0.0898  0.2619  0.0134
 3575SOL    HW110785   3.124   2.437   0.930 -1.3301  1.4371  1.4598
 3575SOL    HW210786   3.236   2.476   1.024  0.7179 -0.1973 -0.2019
 3576SOL     OW10787   2.310   3.771   4.261 -0.2695 -0.2651 -0.3498
 3576SOL    HW110788   2.269   3.828   4.327 -0.0254  0.1810 -0.5753
 3576SOL    HW210789   2.355   3.832   4.202  0.8702 -0.7488 -0.0057
 3577SOL     OW10790   0.928   1.376   0.651 -0.6176 -0.2395 -0.2232
 3577SOL    HW110791   0.884   1.436   0.590  2.2017  0.9387 -1.2813
 3577SOL    HW210792   1.008   1.349   0.605 -0.1026 -2.1172  1.6220
 3578SOL     OW10793   0.861   3.366   0.957 -0.2354  1.0664  0.3531
 3578SOL    HW110794   0.769   3.349   0.976  0.0407 -1.7692 -0.3847
 3578SOL    HW210795   0.900   3.390   1.041 -1.4345  1.3830  0.8369
 3579SOL     OW10796   1.286   0.163   0.470 -0.0962 -0.1898 -0.9026
 3579SOL    HW110797   1.317   0.082   0.430  2.8090  0.5361 -0.4073
 3579SOL    HW210798   1.284   0.226   0.399 -1.0627 -0.3650 -1.0390
 3580SOL     OW10799   1.259   2.207   1.879 -0.3848 -0.7883  0.0593
 3580SOL    HW110800   1.165   2.194   1.864 -0.7922  0.5312  1.2723
 3580SOL    HW210801   1.298   2.203   1.791 -1.9188  1.1666 -0.8004
 3581SOL     OW10802   4.941   1.219   1.674  0.7343 -0.4699 -0.3403
 3581SOL    HW110803   5.000   1.144   1.673  0.3195 -0.8798  1.9866
 3581SOL    HW210804   4.925   1.237   1.767 -0.1088  1.7737 -0.8392
 3582SOL     OW10805   5.209   4.717   2.534  0.0069 -0.1338 -0.2089
 3582SOL    HW110806   5.256   4.791   2.494 -2.1538  0.5509 -1.6727
 3582SOL    HW210807   5.180   4.665   2.459  0.5096 -1.8862  0.7694
 3583SOL     OW10808   3.766   2.016   4.380 -0.2209 -0.4540 -0.4232
 3583SOL    HW110809   3.701   2.078   4.415  0.5475 -0.9612  2.1223
 3583SOL    HW210810   3.783   2.046   4.291 -3.3721  0.1263 -0.9281
 3584SOL     OW10811   1.378   0.411   3.070  0.1763  0.1903 -0.3975
 3584SOL    HW110812   1.400   0.355   2.995 -0.4584 -0.9449  0.2343
 3584SOL    HW210813   1.383   0.352   3.145  3.3433  1.8667  0.8545
 3585SOL     OW10814   3.617   1.258   0.773 -0.1111 -0.3154 -0.4368
 3585SOL    HW110815   3.524   1.245   0.792 -0.2438  0.6548 -0.3371
 3585SOL    HW210816   3.625   1.353   0.759  0.5074 -0.6134 -2.3409
 3586SOL     OW10817   3.917   3.228   4.345 -0.1820 -0.4722 -0.8194
 3586SOL    HW110818   3.895   3.140   4.314  0.3025 -0.5986 -0.8175
 3586SOL    HW210819   3.901   3.225   4.439  0.0770 -0.6375 -0.7794
 3587SOL     OW10820   2.841   4.508   4.206  0.2748  0.2453 -0.6359
 3587SOL    HW110821   2.864   4.563   4.131 -1.0454  0.9475 -0.5592
 3587SOL    HW210822   2.923   4.499   4.255  0.8842  0.7772 -1.5213
 3588SOL     OW10823   0.826   5.037   1.050 -0.0157  0.0757  0.1421
 3588SOL    HW110824   0.781   5.001   0.974  0.6965 -0.8092  0.1150
 3588SOL    HW210825   0.756   5.054   1.114 -0.6767  1.3359 -0.8789
 3589SOL     OW10826   0.423   2.853   0.039  0.0749 -0.2199  0.1071
 3589SOL    HW110827   0.357   2.922   0.030 -0.1077 -0.4287 -0.1922
 3589SOL    HW210828   0.504   2.899   0.062  0.0301  0.1223 -0.4077
 3590SOL     OW10829   2.714   4.993   3.026  0.0927 -0.4764 -0.0079
 3590SOL    HW110830   2.779   4.923   3.030  0.1456 -0.5882 -2.1097
 3590SOL    HW210831   2.658   4.971   2.952 -0.4240  1.2511 -0.1765
 3591SOL     OW10832   2.831   0.376   3.187 -0.0292 -0.5060  0.5680
 3591SOL    HW110833   2.892   0.441   3.152 -0.9126 -0.0646 -0.1796
 3591SOL    HW210834   2.818   0.402   3.278 -0.2629  0.2965  0.3121
 3592SOL     OW10835   5.210   1.707   2.814 -0.2043 -0.0890 -0.2605
 3592SOL    HW110836   5.149   1.661   2.756 -1.3398 -0.5963  1.2365
 3592SOL    HW210837   5.241   1.639   2.874  0.0757  0.6181  0.4095
 3593SOL     OW10838   0.343   0.862   3.204 -0.1678  0.1857  0.0684
 3593SOL    HW110839   0.438   0.873   3.202 -0.0867  0.6218  2.7522
 3593SOL    HW210840   0.331   0.771   3.233 -0.5750  0.0142 -0.6385
 3594SOL     OW10841   5.226   0.384   2.799 -0.2193 -0.5919 -0.9681
 3594SOL    HW110842   5.309   0.431   2.805  0.2596 -1.5005 -0.1170
 3594SOL    HW210843   5.201   0.389   2.707 -0.0057  0.9928 -0.9658
 3595SOL     OW10844   0.958   2.932   3.314  0.5149 -0.0621 -0.0683
 3595SOL    HW110845   0.876   2.951   3.269  0.5879  1.1698  0.2743
 3595SOL    HW210846   0.954   2.984   3.395  0.3842 -2.2183  1.3845
 3596SOL     OW10847   0.505   3.458   2.845  0.8250  0.3324 -0.1987
 3596SOL    HW110848   0.597   3.483   2.855  0.5127  0.9764  1.4046
 3596SOL    HW210849   0.506   3.363   2.849  1.5321  0.2606 -1.4711
 3597SOL     OW10850   1.346   2.491   1.841  0.3698  0.6544  0.2298
 3597SOL    HW110851   1.277   2.481   1.777 -2.4489  1.6650  2.8414
 3597SOL    HW210852   1.359   2.403   1.877 -0.3511  0.6261  0.4371
 3598SOL     OW10853   0.677   2.959   4.038 -0.8800  0.8569 -0.0136
 3598SOL    HW110854   0.711   3.000   4.117  1.2177 -2.3613  0.9708
 3598SOL    HW210855   0.602   2.907   4.068  0.0439 -0.5335 -0.0470
 3599SOL     OW10856   1.229   3.952   1.669  0.2426 -0.8505  0.5794
 3599SOL    HW110857   1.159   3.917   1.724 -1.5566  1.7399  0.1405
 3599SOL    HW210858   1.304   3.961   1.729 -0.9359 -0.2776  2.0397
 3600SOL     OW10859   3.725   4.494   3.882 -0.9451  0.6656 -0.2969
 3600SOL    HW110860   3.651   4.433   3.886  0.0360 -0.5840 -0.5482
 3600SOL    HW210861   3.721   4.542   3.964  0.1630 -2.0973  1.5289
 3601SOL     OW10862   1.072   3.520   4.144 -0.5993  0.1696 -0.3297
 3601SOL    HW110863   1.015   3.511   4.221 -0.0334 -1.3414 -0.0477
 3601SOL    HW210864   1.139   3.582   4.172 -0.5892 -0.1080  0.2982
 3602SOL     OW10865   3.735   0.071   3.059 -0.0556  0.0947 -0.1609
 3602SOL    HW110866   3.770   0.102   3.142  0.7051  0.3788 -0.5864
 3602SOL    HW210867   3.734   0.148   3.002 -0.8801 -0.0240 -0.3256
 3603SOL     OW10868   3.474   3.102   2.017 -0.4977 -0.2531 -0.4960
 3603SOL    HW110869   3.510   3.170   2.074 -1.0259 -0.4153  0.0490
 3603SOL    HW210870   3.382   3.128   2.005 -1.1044 -1.6197  0.9155
 3604SOL     OW10871   0.818   0.006   1.187  0.5223  0.4374 -0.2911
 3604SOL    HW110872   0.894   0.052   1.222  0.1631  0.5676  0.3335
 3604SOL    HW210873   0.755   0.005   1.259 -0.5748  1.4628 -1.2005
 3605SOL     OW10874   4.656   3.733   3.407  0.9026  0.8280 -0.4134
 3605SOL    HW110875   4.598   3.660   3.386  0.7503  0.4600  1.1190
 3605SOL    HW210876   4.597   3.804   3.433  1.0937  0.7146  0.3656
 3606SOL     OW10877   0.244   2.517   4.102 -0.8865  0.1596  0.3365
 3606SOL    HW110878   0.256   2.481   4.014 -0.9094 -0.5527  0.6188
 3606SOL    HW210879   0.189   2.594   4.089 -1.3777 -0.2734 -0.2070
 3607SOL     OW10880   1.700   3.747   1.422 -0.3240 -0.6562  0.9986
 3607SOL    HW110881   1.612   3.779   1.441  0.1576  0.5515  1.2747
 3607SOL    HW210882   1.708   3.757   1.327  0.1048  0.8450  1.1738
 3608SOL     OW10883   2.744   0.204   2.676 -0.1494  0.0521 -0.0089
 3608SOL    HW110884   2.778   0.208   2.765 -0.1407  2.2779 -0.0425
 3608SOL    HW210885   2.787   0.277   2.631 -1.7298  0.2762 -1.2437
 3609SOL     OW10886   4.799   3.636   3.189  0.1750  0.2123 -0.1843
 3609SOL    HW110887   4.798   3.707   3.253 -0.3692  0.9846 -1.0266
 3609SOL    HW210888   4.891   3.624   3.167  0.2492  0.8448 -0.2272
 3610SOL     OW10889   1.919   3.079   0.010 -0.2561 -0.1590 -0.3208
 3610SOL    HW110890   1.997   3.134   0.017 -0.1526 -0.3755  0.2657
 3610SOL    HW210891   1.954   2.989   0.008 -0.5095 -0.2855  0.5089
 3611SOL     OW10892   3.262   0.742   3.947  0.0045  0.3300  0.0505
 3611SOL    HW110893   3.211   0.692   4.012  1.4791  0.4220  1.3494
 3611SOL    HW210894   3.246   0.697   3.865 -1.0840 -0.4569  0.6596
 3612SOL     OW10895   1.698   2.199   2.461 -0.7212 -0.2392  0.4574
 3612SOL    HW110896   1.715   2.105   2.453  1.4544  0.2036 -0.8614
 3612SOL    HW210897   1.781   2.241   2.438 -2.1658  2.0717 -0.9755
 3613SOL     OW10898   3.785   2.048   0.910  0.1067 -0.0626 -0.2142
 3613SOL    HW110899   3.834   2.064   0.830  0.3377 -2.3378 -0.6007
 3613SOL    HW210900   3.800   1.956   0.930 -0.8148  0.1654  1.8748
 3614SOL     OW10901   5.156   0.536   4.321  0.3388 -0.0008 -0.0231
 3614SOL    HW110902   5.129   0.449   4.290  0.6754  0.4428 -1.6641
 3614SOL    HW210903   5.078   0.571   4.364  0.6976 -1.7686  2.3013
 3615SOL     OW10904   0.771   0.451   2.543  0.7110  0.2909  0.1496
 3615SOL    HW110905   0.799   0.363   2.568 -0.5395 -0.0843  0.2608
 3615SOL    HW210906   0.806   0.507   2.612  0.4559 -0.2708  0.7402
 3616SOL     OW10907   4.753   3.466   1.837 -0.1807  0.1375 -0.0825
 3616SOL    HW110908   4.791   3.523   1.904 -1.4696  1.9449 -0.8221
 3616SOL    HW210909   4.660   3.462   1.859 -0.0854 -2.1033  0.1889
 3617SOL     OW10910   0.341   5.125   2.678  0.2416  0.6832  0.0178
 3617SOL    HW110911   0.314   5.064   2.609 -0.6185  1.3806 -0.2784
 3617SOL    HW210912   0.338   5.073   2.759  0.2154  0.1467 -0.3234
 3618SOL     OW10913   1.253   2.015   3.513 -0.0786  0.2029  0.4400
 3618SOL    HW110914   1.293   2.095   3.548  1.1977 -0.0067 -0.4666
 3618SOL    HW210915   1.261   1.951   3.584  2.5346 -0.2361 -0.1620
 3619SOL     OW10916   4.717   2.659   0.580 -0.0096 -0.2421  0.0877
 3619SOL    HW110917   4.706   2.584   0.523 -0.6612 -0.3460  0.3420
 3619SOL    HW210918   4.811   2.661   0.600  0.1772 -0.3507 -0.7732
 3620SOL     OW10919   4.484   3.756   3.732  0.3113  0.4239 -0.0849
 3620SOL    HW110920   4.524   3.821   3.674  2.4535 -1.3074 -0.6560
 3620SOL    HW210921   4.423   3.708   3.675  1.1965 -0.2081 -0.5132
 3621SOL     OW10922   2.943   2.044   2.541 -0.3548 -0.5295 -0.3415
 3621SOL    HW110923   2.889   2.102   2.488 -0.8364 -1.1163 -0.4996
 3621SOL    HW210924   2.905   1.957   2.529 -1.5346 -0.4647  2.2584
 3622SOL     OW10925   5.373   3.967   4.156 -0.3081 -0.5607  0.5849
 3622SOL    HW110926   5.455   3.974   4.205 -0.5704 -2.2543  1.3288
 3622SOL    HW210927   5.381   3.885   4.107 -0.6497  0.3753 -1.1329
 3623SOL     OW10928   2.195   4.230   0.750  0.2349 -0.0288  0.4974
 3623SOL    HW110929   2.234   4.145   0.770  0.9547  0.1965  0.1186
 3623SOL    HW210930   2.269   4.282   0.718 -0.5032  0.1888 -0.9310
 3624SOL     OW10931   2.419   3.349   2.100  0.1745 -0.0008 -0.6479
 3624SOL    HW110932   2.474   3.358   2.023 -2.0811  0.0811 -2.3534
 3624SOL    HW210933   2.375   3.434   2.108 -2.6685 -1.2352 -1.8449
 3625SOL     OW10934   4.633   5.144   3.163 -0.8820  0.3250 -0.1514
 3625SOL    HW110935   4.609   5.054   3.181  1.0229 -0.2737 -0.3805
 3625SOL    HW210936   4.673   5.142   3.076  1.6997  0.8042  0.9171
 3626SOL     OW10937   0.507   1.496   1.735 -0.2469 -0.2210 -0.2716
 3626SOL    HW110938   0.508   1.513   1.640 -0.2802  0.6363 -0.1261
 3626SOL    HW210939   0.522   1.582   1.775 -3.3935  0.0687  0.5600
 3627SOL     OW10940   3.657   1.085   1.492  0.2055 -0.5276 -0.4072
 3627SOL    HW110941   3.635   1.013   1.433  1.2371 -0.8381 -0.4495
 3627SOL    HW210942   3.580   1.095   1.548  0.1541 -1.8978 -0.1809
 3628SOL     OW10943   0.671   3.333   0.104  0.2073  0.2362 -0.0656
 3628SOL    HW110944   0.704   3.328   0.194 -0.8950  2.0556  0.4913
 3628SOL    HW210945   0.749   3.323   0.050  0.9099 -0.8229  1.0703
 3629SOL     OW10946   2.686   0.826   2.138 -0.1549 -0.1648 -0.5938
 3629SOL    HW110947   2.733   0.841   2.055  0.2953  1.1257 -0.1369
 3629SOL    HW210948   2.747   0.856   2.205 -0.1996 -1.9679  0.2834
 3630SOL     OW10949   3.797   4.354   0.693 -0.0050 -0.2814  0.5997
 3630SOL    HW110950   3.890   4.368   0.676  0.1279 -1.0651  0.6440
 3630SOL    HW210951   3.787   4.258   0.692 -1.3214 -0.2139 -2.1561
 3631SOL     OW10952   2.789   2.695   1.085 -0.2836 -0.5419  0.1578
 3631SOL    HW110953   2.780   2.779   1.131 -0.3700 -0.1577 -0.5476
 3631SOL    HW210954   2.880   2.692   1.057 -0.5850 -0.0793 -0.9349
 3632SOL     OW10955   4.374   3.381   3.113 -0.2186  0.5889  0.6468
 3632SOL    HW110956   4.285   3.406   3.089 -0.1488  0.4542  0.2325
 3632SOL    HW210957   4.427   3.458   3.093 -0.0216  0.1825 -0.5229
 3633SOL     OW10958   4.903   1.240   1.233 -0.1413 -0.3893 -0.2622
 3633SOL    HW110959   4.901   1.224   1.139  0.6644 -0.0554 -0.3421
 3633SOL    HW210960   4.856   1.165   1.271  0.1326 -0.8838 -0.8791
 3634SOL     OW10961   2.679   2.018   2.955  0.0482 -0.2013 -0.0162
 3634SOL    HW110962   2.740   2.039   3.025 -0.3886 -2.6948  1.2176
 3634SOL    HW210963   2.611   2.085   2.961  1.8305  1.7655 -0.5019
 3635SOL     OW10964   3.998   2.675   3.069 -0.3114 -0.3332 -0.3243
 3635SOL    HW110965   3.978   2.594   3.115  0.8647  1.4159  3.6405
 3635SOL    HW210966   3.917   2.726   3.071 -0.3480 -0.3775 -0.5577
 3636SOL     OW10967   2.402   1.082   3.331  0.4371  0.0643 -0.0431
 3636SOL    HW110968   2.369   1.071   3.242 -0.1791  1.7711 -0.0548
 3636SOL    HW210969   2.466   1.152   3.326 -1.3157  1.8572  1.2032
 3637SOL     OW10970   2.741   2.952   1.466 -0.0505 -0.4070  0.7961
 3637SOL    HW110971   2.739   2.939   1.371  0.6374 -0.5039  0.7905
 3637SOL    HW210972   2.726   2.865   1.502  0.9005 -0.5980  0.7648
 3638SOL     OW10973   2.995   0.718   2.290  0.0399 -0.4706  0.0615
 3638SOL    HW110974   2.919   0.660   2.299  0.5845 -1.1204  0.5954
 3638SOL    HW210975   3.019   0.712   2.198 -0.0072 -0.9661  0.0784
 3639SOL     OW10976   2.201   2.181   1.052  0.3294  0.0023 -0.0644
 3639SOL    HW110977   2.254   2.148   1.125  0.2709 -0.6305 -0.2960
 3639SOL    HW210978   2.242   2.263   1.027  1.7838 -0.9260 -0.8524
 3640SOL     OW10979   4.918   0.863   0.465 -0.3598  0.0377  0.2069
 3640SOL    HW110980   4.912   0.954   0.438 -3.2576 -0.1592 -0.0707
 3640SOL    HW210981   4.941   0.815   0.385  1.1641  0.4711  0.3539
 3641SOL     OW10982   1.201   1.132   1.444 -0.1929  0.2678  0.2428
 3641SOL    HW110983   1.253   1.066   1.489  0.6900  1.4199  0.9962
 3641SOL    HW210984   1.265   1.181   1.391 -0.8938  0.2461 -0.6615
 3642SOL     OW10985   3.178   1.084   4.145 -0.1289 -0.2371  0.6814
 3642SOL    HW110986   3.125   1.142   4.199 -0.7791  0.8172 -1.0302
 3642SOL    HW210987   3.257   1.135   4.126 -0.2496 -0.2951  0.0043
 3643SOL     OW10988   2.453   0.913   0.502 -0.0848 -0.0724  0.0476
 3643SOL    HW110989   2.497   0.973   0.562 -0.3671  0.6124 -0.4153
 3643SOL    HW210990   2.361   0.941   0.504  0.0961  0.8108 -1.6658
 3644SOL     OW10991   0.535   1.392   3.461 -0.2771  0.0422 -0.0154
 3644SOL    HW110992   0.547   1.425   3.372 -0.7349 -0.5095 -0.2899
 3644SOL    HW210993   0.442   1.405   3.479  0.0536  1.3926  0.9031
 3645SOL     OW10994   4.086   4.837   2.003 -0.1355  0.1158  0.5984
 3645SOL    HW110995   4.020   4.808   1.939 -1.4354  1.0827  1.4487
 3645SOL    HW210996   4.170   4.812   1.964 -0.9805 -0.7913 -0.7099
 3646SOL     OW10997   0.389   1.566   1.004  0.2936  0.0833  0.2437
 3646SOL    HW110998   0.401   1.656   1.036  2.0611 -0.0963  0.2111
 3646SOL    HW210999   0.307   1.568   0.955  0.9975  2.0642 -0.9739
 3647SOL     OW11000   1.396   2.125   0.990  0.1862 -0.1135 -0.3165
 3647SOL    HW111001   1.412   2.219   0.982 -0.6973 -0.0470 -1.6407
 3647SOL    HW211002   1.401   2.092   0.901  0.3411 -1.3075  0.1181
 3648SOL     OW11003   4.401   0.598   2.573 -0.3255 -0.1798 -0.5272
 3648SOL    HW111004   4.486   0.558   2.591 -1.0153 -0.5162  2.3666
 3648SOL    HW211005   4.341   0.524   2.564 -0.4738  0.0783 -2.0145
 3649SOL     OW11006   2.735   0.258   0.607  0.4159  0.0741  0.0561
 3649SOL    HW111007   2.715   0.178   0.558 -0.4921  1.3601 -1.7986
 3649SOL    HW211008   2.649   0.298   0.623  0.8417  0.5918  1.1063
 3650SOL     OW11009   1.430   1.284   1.892 -0.3709  0.1887  0.0165
 3650SOL    HW111010   1.362   1.248   1.948  0.2579 -1.3535 -0.1525
 3650SOL    HW211011   1.451   1.369   1.931 -1.2029 -0.0629  1.0550
 3651SOL     OW11012   0.444   3.526   3.562 -0.0047  0.2540  0.4237
 3651SOL    HW111013   0.505   3.468   3.607 -0.8465 -0.5981  0.5018
 3651SOL    HW211014   0.476   3.528   3.471 -0.6525 -1.3411  0.1282
 3652SOL     OW11015   3.023   4.811   2.954  0.5984  0.0805 -0.0127
 3652SOL    HW111016   2.995   4.841   2.867 -2.2095 -1.9624  0.0162
 3652SOL    HW211017   2.987   4.723   2.961  3.2797 -0.9948  2.1474
 3653SOL     OW11018   3.673   4.997   3.540 -0.3903 -0.2077 -0.5714
 3653SOL    HW111019   3.751   5.051   3.539  0.4687 -1.3987 -0.1310
 3653SOL    HW211020   3.700   4.916   3.584 -2.2947  0.0001  1.1454
 3654SOL     OW11021   2.859   2.660   4.236  0.1084  0.1380 -0.2755
 3654SOL    HW111022   2.935   2.675   4.180  0.2795 -1.3946 -0.4870
 3654SOL    HW211023   2.870   2.722   4.308  1.4682  0.0625 -0.4009
 3655SOL     OW11024   0.609   3.901   0.371  0.0947 -0.0891  0.5921
 3655SOL    HW111025   0.656   3.928   0.450  4.3705 -2.2699 -0.9104
 3655SOL    HW211026   0.552   3.830   0.401  0.7324 -0.0836  1.9080
 3656SOL     OW11027   5.116   1.432   1.056 -0.0246 -0.3625  0.1343
 3656SOL    HW111028   5.028   1.468   1.045  1.2799  2.7314 -1.4992
 3656SOL    HW211029   5.117   1.355   1.000 -1.2405  0.5698 -1.2583
 3657SOL     OW11030   4.477   3.835   0.726 -0.1550  0.2870  0.2277
 3657SOL    HW111031   4.457   3.821   0.634 -0.0381  0.1029  0.2290
 3657SOL    HW211032   4.516   3.752   0.755  0.0078  0.4168  0.3862
 3658SOL     OW11033   3.353   4.893   1.079 -0.4157 -0.0531 -0.3320
 3658SOL    HW111034   3.364   4.927   0.990 -1.2516 -0.2460 -0.5169
 3658SOL    HW211035   3.298   4.958   1.123 -3.1506 -1.7248 -1.0707
 3659SOL     OW11036   1.973   1.988   1.516  0.4958 -0.0514 -0.0171
 3659SOL    HW111037   1.991   2.014   1.606 -0.0500 -1.2203  0.4598
 3659SOL    HW211038   1.881   2.010   1.502  0.8871  1.2263 -0.7130
 3660SOL     OW11039   2.485   2.126   2.499  0.2219 -0.1958  0.5150
 3660SOL    HW111040   2.405   2.166   2.533 -0.0606 -0.7210  0.4789
 3660SOL    HW211041   2.519   2.074   2.573 -0.1955 -1.0442  0.1251
 3661SOL     OW11042   0.821   3.073   3.523 -0.6363 -0.0779  0.1414
 3661SOL    HW111043   0.756   3.007   3.497  0.9923 -1.9509  0.5589
 3661SOL    HW211044   0.813   3.077   3.619  0.7692 -1.4055  0.3548
 3662SOL     OW11045   2.822   0.325   1.164 -0.6970 -0.7323 -0.0229
 3662SOL    HW111046   2.736   0.366   1.172 -0.6548 -0.5820 -0.3179
 3662SOL    HW211047   2.869   0.381   1.103 -0.2322 -0.5575  0.4850
 3663SOL     OW11048   0.821   2.689   3.091  0.1847 -0.6470  0.2205
 3663SOL    HW111049   0.893   2.629   3.111 -1.4686 -1.9741  2.6579
 3663SOL    HW211050   0.746   2.631   3.076 -1.0456  0.7620  0.7785
 3664SOL     OW11051   3.309   4.572   4.397  0.2730 -0.0091  0.3960
 3664SOL    HW111052   3.249   4.628   4.346  0.3730  0.2187  0.5282
 3664SOL    HW211053   3.322   4.495   4.342 -2.3590 -1.3854  1.5338
 3665SOL     OW11054   5.361   3.234   3.649  0.7252  0.6423 -0.5479
 3665SOL    HW111055   5.304   3.288   3.703 -0.2921 -1.7707  0.9590
 3665SOL    HW211056   5.427   3.199   3.710  0.4642 -0.9445 -1.1236
 3666SOL     OW11057   1.838   1.079   2.116 -0.2002 -0.3540  0.2551
 3666SOL    HW111058   1.882   0.995   2.129  0.3695  0.1132  1.5267
 3666SOL    HW211059   1.833   1.117   2.204 -1.0674  0.6441 -0.2026
 3667SOL     OW11060   0.914   4.740   4.340  0.3619  0.8642 -0.0925
 3667SOL    HW111061   0.855   4.749   4.265 -1.1470 -0.0708  0.9251
 3667SOL    HW211062   0.858   4.760   4.415  0.6364 -2.4495  1.1202
 3668SOL     OW11063   0.884   3.623   0.018  0.1785  0.1244  0.8122
 3668SOL    HW111064   0.886   3.632  -0.077  0.8609  2.8162  0.9974
 3668SOL    HW211065   0.949   3.555   0.037  0.6892  0.1884 -0.5897
 3669SOL     OW11066   2.132   2.579   4.337 -0.6068 -0.2021  0.0709
 3669SOL    HW111067   2.220   2.561   4.303  0.7937  1.7420  2.3496
 3669SOL    HW211068   2.147   2.623   4.421 -3.7172  3.2353 -0.9352
 3670SOL     OW11069   1.965   1.481   0.341 -0.4937 -0.0817 -0.0780
 3670SOL    HW111070   1.914   1.466   0.420  1.1140 -2.4437  0.5959
 3670SOL    HW211071   2.037   1.537   0.369 -0.0047 -0.7994  0.1179
 3671SOL     OW11072   3.057   3.328   0.789 -0.0737 -0.2632 -0.1063
 3671SOL    HW111073   3.024   3.366   0.707  0.7279 -0.5128 -0.5641
 3671SOL    HW211074   3.044   3.397   0.854  2.4266  1.3751 -1.1628
 3672SOL     OW11075   3.201   2.110   0.190 -0.0667  0.3178 -0.0508
 3672SOL    HW111076   3.118   2.104   0.238 -0.0039  1.9196  0.3075
 3672SOL    HW211077   3.176   2.096   0.099 -0.9864  2.0397 -0.1168
 3673SOL     OW11078   4.110   4.814   0.663  0.4042  0.4021  0.4429
 3673SOL    HW111079   4.054   4.890   0.645  0.8309  0.1939 -2.1641
 3673SOL    HW211080   4.064   4.767   0.733 -1.1585  1.7497  0.3968
 3674SOL     OW11081   5.284   5.069   3.393  0.0109  0.4337  0.1179
 3674SOL    HW111082   5.329   5.020   3.462 -2.0699  1.2695  2.2095
 3674SOL    HW211083   5.276   5.158   3.428 -4.6853 -0.0162  0.7870
 3675SOL     OW11084   3.625   4.099   2.976 -0.0574  0.5080  0.3544
 3675SOL    HW111085   3.569   4.056   3.041 -2.1955 -0.4778 -1.9394
 3675SOL    HW211086   3.645   4.185   3.014 -0.4415 -0.3534  2.6487
 3676SOL     OW11087   4.007   4.325   2.407  0.1230  0.1061  0.2731
 3676SOL    HW111088   4.079   4.378   2.442  0.1176  0.1127  0.2740
 3676SOL    HW211089   3.995   4.255   2.472  0.9924 -0.6538 -0.3458
 3677SOL     OW11090   4.750   2.576   0.291  0.0014 -0.2452 -0.1530
 3677SOL    HW111091   4.821   2.604   0.233  0.1796 -1.4762 -0.5532
 3677SOL    HW211092   4.673   2.622   0.258  0.5000  0.7031 -0.0349
 3678SOL     OW11093   3.592   4.934   0.688  1.1967 -1.0361  0.1274
 3678SOL    HW111094   3.496   4.943   0.689  1.2462 -0.1427 -0.9062
 3678SOL    HW211095   3.619   4.960   0.776  0.6504  1.1220 -0.2861
 3679SOL     OW11096   1.137   1.862   1.766 -0.1232 -0.0513 -0.3374
 3679SOL    HW111097   1.218   1.830   1.726 -0.5480 -1.5138 -0.1031
 3679SOL    HW211098   1.096   1.783   1.801 -1.2544  0.7856  0.2650
 3680SOL     OW11099   0.207   1.000   0.045  0.1505 -0.6803  0.3813
 3680SOL    HW111100   0.240   1.005  -0.045  1.4044  1.3437  0.8920
 3680SOL    HW211101   0.139   0.933   0.042  1.9083 -2.5134 -1.5141
 3681SOL     OW11102   3.765   2.651   2.022  0.8709  0.0547  0.8458
 3681SOL    HW111103   3.769   2.743   2.048  1.4025  0.1480  0.4701
 3681SOL    HW211104   3.758   2.654   1.927 -3.1971 -0.2324  0.9880
 3682SOL     OW11105   0.719   0.934   1.511 -0.2603 -0.0055  0.3373
 3682SOL    HW111106   0.650   0.904   1.569 -1.0995  1.4364  0.1387
 3682SOL    HW211107   0.695   1.024   1.490  0.9475  0.0690 -0.8591
 3683SOL     OW11108   1.010   1.160   2.104  0.0897  0.2534 -0.0037
 3683SOL    HW111109   1.088   1.157   2.048 -0.7027  1.5532 -1.2531
 3683SOL    HW211110   1.042   1.194   2.188  0.7672  1.4857 -0.7266
 3684SOL     OW11111   3.087   3.904   2.032 -0.1311 -0.2275 -0.3467
 3684SOL    HW111112   3.028   3.893   1.958 -2.7005  2.9607  1.0036
 3684SOL    HW211113   3.135   3.985   2.013 -0.1327  0.1221  0.9964
 3685SOL     OW11114   3.771   2.941   3.328  0.2988 -0.2950 -0.2741
 3685SOL    HW111115   3.769   2.857   3.282 -1.0548 -0.7094  0.5150
 3685SOL    HW211116   3.863   2.968   3.323  0.8391 -1.9970 -0.2118
 3686SOL     OW11117   5.264   0.082   1.675 -0.0846 -0.0403 -0.1258
 3686SOL    HW111118   5.269   0.156   1.736  0.0955  0.6210 -0.9129
 3686SOL    HW211119   5.351   0.079   1.635  0.2156 -1.2934  0.5692
 3687SOL     OW11120   5.329   5.117   1.653  0.2507  0.3738 -0.1715
 3687SOL    HW111121   5.363   5.055   1.717 -4.0547 -2.5129 -0.2198
 3687SOL    HW211122   5.274   5.177   1.705 -0.0448  0.5838 -0.7176
 3688SOL     OW11123   0.342   1.719   0.403  0.3210 -0.5434 -0.2711
 3688SOL    HW111124   0.424   1.768   0.414  0.4565 -0.7193 -0.4853
 3688SOL    HW211125   0.296   1.732   0.486 -0.5950  1.6482 -1.0641
 3689SOL     OW11126   4.153   4.763   1.648 -0.7482 -0.1803  0.6112
 3689SOL    HW111127   4.124   4.724   1.566 -0.2659 -1.7984  1.1801
 3689SOL    HW211128   4.235   4.718   1.669 -0.4260  0.7960  1.5627
 3690SOL     OW11129   1.433   0.834   2.581 -0.3530 -0.6874 -0.2584
 3690SOL    HW111130   1.472   0.806   2.498  0.1118  1.0611 -0.6710
 3690SOL    HW211131   1.368   0.899   2.556  0.9211  1.0819  0.7976
 3691SOL     OW11132   2.649   2.391   2.095 -0.1618 -0.2865  0.1559
 3691SOL    HW111133   2.657   2.448   2.018  1.7267  0.2553  0.6978
 3691SOL    HW211134   2.636   2.451   2.168  0.8566 -0.5822  0.5999
 3692SOL     OW11135   0.460   1.839   1.012  0.2468 -0.0319  0.1429
 3692SOL    HW111136   0.547   1.871   0.989 -0.0711  0.4223 -0.4554
 3692SOL    HW211137   0.402   1.881   0.949 -0.2862 -1.1198 -0.1112
 3693SOL     OW11138   1.588   4.725   1.781  0.1579  0.7424 -0.4400
 3693SOL    HW111139   1.565   4.653   1.840  2.1256 -0.1081 -0.6616
 3693SOL    HW211140   1.555   4.803   1.826 -1.3950 -0.1906  0.1305
 3694SOL     OW11141   4.187   3.908   3.849 -0.5721 -0.4065 -0.0814
 3694SOL    HW111142   4.229   3.909   3.936 -0.2690  0.6795 -0.2318
 3694SOL    HW211143   4.174   4.000   3.827 -3.1392 -0.6897 -0.0159
 3695SOL     OW11144   1.541   4.858   2.754 -0.8618  0.2227  0.0173
 3695SOL    HW111145   1.602   4.931   2.746  0.2512 -0.6271  0.3057
 3695SOL    HW211146   1.474   4.889   2.814  0.5354  0.4477  1.5561
 3696SOL     OW11147   3.904   0.236   3.209  0.1748 -0.1332 -0.1311
 3696SOL    HW111148   3.929   0.326   3.233 -0.7516  0.5012 -1.4256
 3696SOL    HW211149   3.972   0.207   3.148  0.7783 -0.5433  0.7145
 3697SOL     OW11150   4.928   0.884   1.805  0.2974 -0.4994 -0.5971
 3697SOL    HW111151   5.005   0.938   1.786  0.4545 -1.5092 -3.3990
 3697SOL    HW211152   4.909   0.899   1.897  2.8664  1.0370 -0.2379
 3698SOL     OW11153   3.995   2.177   2.662 -0.4557 -0.5801  0.3205
 3698SOL    HW111154   3.991   2.273   2.665  0.1244 -0.4750 -1.1842
 3698SOL    HW211155   3.991   2.149   2.753 -0.6248  0.8750  0.7788
 3699SOL     OW11156   4.126   0.881   2.031 -0.3106  0.7869 -0.1340
 3699SOL    HW111157   4.047   0.878   2.085 -0.6555  0.4078 -0.6516
 3699SOL    HW211158   4.162   0.968   2.045  0.4129  0.2154  1.8480
 3700SOL     OW11159   4.187   4.162   2.750 -0.4357  0.1243 -0.6411
 3700SOL    HW111160   4.110   4.166   2.693 -1.3902  0.1964  0.6270
 3700SOL    HW211161   4.172   4.085   2.805  2.0454 -1.9660 -2.6214
 3701SOL     OW11162   3.700   3.202   2.267 -0.0750  0.1876  0.3129
 3701SOL    HW111163   3.634   3.156   2.319  0.5970  0.2412  1.2231
 3701SOL    HW211164   3.770   3.223   2.328  2.6025 -3.1346 -1.2817
 3702SOL     OW11165   0.761   2.103   1.767  0.6852  0.4013  0.1379
 3702SOL    HW111166   0.840   2.083   1.817 -0.1265 -1.2674  0.8358
 3702SOL    HW211167   0.709   2.160   1.825  0.3098 -0.4975  0.7030
 3703SOL     OW11168   2.299   3.301   1.658 -0.0201  0.0341  0.1601
 3703SOL    HW111169   2.336   3.218   1.691 -0.1525 -0.0751  0.0315
 3703SOL    HW211170   2.210   3.279   1.633 -0.6424  0.6102  1.7688
 3704SOL     OW11171   3.711   4.919   1.907  0.8997  0.1520  0.0290
 3704SOL    HW111172   3.768   4.996   1.896  0.6599  0.4003  0.4857
 3704SOL    HW211173   3.762   4.846   1.872  1.1341  0.5180 -0.4066
 3705SOL     OW11174   0.199   3.167   2.248  0.3272 -0.0756 -0.3577
 3705SOL    HW111175   0.132   3.195   2.310 -0.4756  0.1324 -1.3054
 3705SOL    HW211176   0.278   3.157   2.302 -0.1075  1.0301  0.5255
 3706SOL     OW11177   2.771   0.548   3.398  0.1359 -0.7408  0.2204
 3706SOL    HW111178   2.785   0.631   3.352 -0.0151 -0.8434 -0.0084
 3706SOL    HW211179   2.757   0.574   3.490 -2.9817 -0.2448 -0.2877
 3707SOL     OW11180   3.897   1.686   2.430  0.4009 -0.2160 -0.3378
 3707SOL    HW111181   3.983   1.648   2.443  0.7416  0.8094  0.5006
 3707SOL    HW211182   3.908   1.779   2.449 -0.5110  0.2516 -1.8908
 3708SOL     OW11183   4.808   4.679   0.692 -0.1002 -0.4505 -0.3538
 3708SOL    HW111184   4.824   4.764   0.733  0.4460 -0.4406 -0.5831
 3708SOL    HW211185   4.720   4.654   0.722  0.3776 -0.5546  1.0233
 3709SOL     OW11186   4.779   4.158   1.967  0.7901 -0.1917  0.2239
 3709SOL    HW111187   4.688   4.162   1.940  0.7129 -1.1046  0.3311
 3709SOL    HW211188   4.788   4.230   2.030  0.0039 -0.4489  0.6380
 3710SOL     OW11189   5.075   3.338   1.370 -0.2190  0.0579 -0.4694
 3710SOL    HW111190   5.120   3.419   1.394 -0.2682  0.1487 -0.6817
 3710SOL    HW211191   5.015   3.364   1.300  0.0526 -0.2392 -0.8178
 3711SOL     OW11192   3.883   4.451   3.233 -0.2919  0.0794 -0.2781
 3711SOL    HW111193   3.944   4.377   3.234  0.8058  0.9726  0.6592
 3711SOL    HW211194   3.923   4.515   3.175 -0.7781  0.3393 -0.3351
 3712SOL     OW11195   1.901   0.571   2.974  0.8611 -0.4874 -0.4598
 3712SOL    HW111196   1.907   0.658   2.937 -0.3046  0.2787  1.0230
 3712SOL    HW211197   1.808   0.561   2.996  1.3512 -1.1020  1.6126
 3713SOL     OW11198   0.020   1.060   2.338  0.2145  0.2131  0.1280
 3713SOL    HW111199   0.107   1.084   2.308 -0.2076 -0.0169 -1.3471
 3713SOL    HW211200   0.011   0.967   2.316 -1.1101  0.6930 -1.6022
 3714SOL     OW11201   0.020   3.065   0.709 -0.2740  0.2851  0.2660
 3714SOL    HW111202   0.039   3.019   0.627  1.5874  1.5165 -0.0588
 3714SOL    HW211203   0.106   3.079   0.749 -1.1838 -2.5478  3.8053
 3715SOL     OW11204   4.783   1.499   1.313  0.0958  0.1059 -0.0479
 3715SOL    HW111205   4.853   1.434   1.313 -0.5636 -0.6720 -2.0769
 3715SOL    HW211206   4.702   1.449   1.302 -0.5189  1.1581 -0.5317
 3716SOL     OW11207   4.307   4.229   1.174 -0.0422  0.2473  0.7136
 3716SOL    HW111208   4.390   4.267   1.202  0.3929 -0.7929  0.8896
 3716SOL    HW211209   4.262   4.206   1.255  0.2094 -0.6567  0.6060
 3717SOL     OW11210   4.873   0.406   1.348 -0.1377  0.8279 -0.1715
 3717SOL    HW111211   4.900   0.326   1.302  0.0525  2.6438 -3.4636
 3717SOL    HW211212   4.956   0.450   1.369 -0.2837  1.3628 -0.6992
 3718SOL     OW11213   0.487   2.786   2.465  0.5801  0.6456 -0.0278
 3718SOL    HW111214   0.549   2.750   2.401 -1.3409  0.1858 -1.7557
 3718SOL    HW211215   0.486   2.723   2.536  0.4957 -0.4907 -1.0031
 3719SOL     OW11216   2.660   4.785   0.971 -0.1555 -0.3075 -0.1842
 3719SOL    HW111217   2.705   4.770   0.888  0.1219  0.3395 -0.1559
 3719SOL    HW211218   2.652   4.880   0.977  1.8042 -0.1635  1.5504
 3720SOL     OW11219   4.821   3.204   4.099 -0.4221 -0.5259  0.1991
 3720SOL    HW111220   4.838   3.282   4.046 -0.6139 -0.8503 -0.3481
 3720SOL    HW211221   4.908   3.176   4.128 -0.3657 -0.0204  0.5325
 3721SOL     OW11222   0.460   1.403   2.510  0.0066  0.1772  0.2115
 3721SOL    HW111223   0.401   1.347   2.459  1.6073 -1.7375  0.3460
 3721SOL    HW211224   0.432   1.391   2.600 -1.1853  1.5521  0.0598
 3722SOL     OW11225   3.028   0.824   1.678 -0.2388  0.5790 -0.4470
 3722SOL    HW111226   2.945   0.780   1.658 -0.8048  1.7831 -0.8922
 3722SOL    HW211227   3.085   0.755   1.712 -1.4717 -0.2561  0.0067
 3723SOL     OW11228   2.537   2.737   0.577  0.2811 -0.5626 -0.3914
 3723SOL    HW111229   2.608   2.709   0.634  1.6059 -0.4510 -1.9017
 3723SOL    HW211230   2.491   2.805   0.625  1.1641 -0.6784  0.6347
 3724SOL     OW11231   3.038   3.600   1.731 -0.0288  0.2218 -0.0620
 3724SOL    HW111232   2.986   3.520   1.723  0.2472  0.2195 -3.8963
 3724SOL    HW211233   2.973   3.670   1.735 -0.3498  0.0073 -1.1353
 3725SOL     OW11234   5.395   2.444   2.670 -0.3549  1.0770  0.0940
 3725SOL    HW111235   5.465   2.499   2.703  1.8463 -1.1968 -0.5007
 3725SOL    HW211236   5.316   2.499   2.677  1.0620  3.0095  2.7465
 3726SOL     OW11237   2.595   3.832   0.759  0.1574  0.4308  0.7819
 3726SOL    HW111238   2.508   3.815   0.796  0.7374  0.7119  2.3692
 3726SOL    HW211239   2.651   3.765   0.798  0.7459  0.5532  0.1577
 3727SOL     OW11240   4.477   1.529   3.449 -0.1648 -0.0809 -0.1631
 3727SOL    HW111241   4.531   1.604   3.425  0.0944  0.2366  1.3398
 3727SOL    HW211242   4.420   1.562   3.518 -1.1290 -0.8678 -0.5601
 3728SOL     OW11243   1.241   0.053   3.828  1.0183 -0.7999 -0.5552
 3728SOL    HW111244   1.285   0.119   3.775  1.6824 -0.9699 -0.2193
 3728SOL    HW211245   1.229   0.096   3.913  0.4018 -0.7044 -0.6830
 3729SOL     OW11246   0.947   0.800   1.588  0.2161 -0.4800  0.3902
 3729SOL    HW111247   0.971   0.859   1.659  0.2622 -0.2688  0.1990
 3729SOL    HW211248   0.874   0.844   1.544  0.7647 -0.1881 -0.2391
 3730SOL     OW11249   1.136   0.796   2.519 -0.0084 -0.2839 -0.0654
 3730SOL    HW111250   1.101   0.711   2.493 -2.8728  0.6971  0.2320
 3730SOL    HW211251   1.136   0.794   2.615 -0.4438  0.1679 -0.0519
 3731SOL     OW11252   5.087   1.869   0.633 -0.1642 -0.3254 -0.2057
 3731SOL    HW111253   5.088   1.936   0.702 -2.7792  0.0036 -0.3638
 3731SOL    HW211254   5.154   1.897   0.571  0.5901  0.6986  1.0247
 3732SOL     OW11255   2.438   0.291   2.026 -0.3301 -0.3492  0.4151
 3732SOL    HW111256   2.503   0.358   2.048  0.7141 -1.5346  1.0812
 3732SOL    HW211257   2.450   0.276   1.932  0.8957 -1.0751  0.6666
 3733SOL     OW11258   2.401   5.074   0.726 -0.4072 -0.1695 -0.6767
 3733SOL    HW111259   2.449   5.084   0.808 -0.2642  1.3519 -0.9174
 3733SOL    HW211260   2.385   4.980   0.719  0.8883 -0.4944  0.3411
 3734SOL     OW11261   0.867   0.208   0.261  0.4797 -0.0209 -0.2005
 3734SOL    HW111262   0.920   0.142   0.305  0.9891 -0.4307 -1.3660
 3734SOL    HW211263   0.910   0.291   0.281  1.0047 -0.2540 -0.3512
 3735SOL     OW11264   4.591   0.438   1.955 -0.5349 -0.2075 -0.0905
 3735SOL    HW111265   4.541   0.483   1.887 -1.9864 -0.0291  1.0393
 3735SOL    HW211266   4.682   0.449   1.930 -1.0376 -0.8713 -2.4562
 3736SOL     OW11267   3.928   4.765   1.803 -0.4459 -0.0492 -0.7633
 3736SOL    HW111268   4.004   4.765   1.745 -0.9291 -0.9806 -1.4203
 3736SOL    HW211269   3.876   4.690   1.774 -0.7550 -0.4708  0.8123
 3737SOL     OW11270   5.052   4.759   2.739 -0.3184 -0.0925  0.2436
 3737SOL    HW111271   4.991   4.685   2.735  0.4972 -0.9160  2.0360
 3737SOL    HW211272   5.111   4.745   2.665 -0.7156 -0.7413  0.0361
 3738SOL     OW11273   3.835   0.322   0.861  0.2213 -0.6250 -0.0117
 3738SOL    HW111274   3.892   0.346   0.787 -0.3797 -1.0934 -0.6480
 3738SOL    HW211275   3.805   0.406   0.896 -0.4818 -0.4021 -1.1017
 3739SOL     OW11276   3.104   1.107   2.349 -0.0899  0.4394 -0.5633
 3739SOL    HW111277   3.130   1.185   2.301 -1.6334  1.3632  0.0159
 3739SOL    HW211278   3.176   1.045   2.336  1.8774  2.4386  0.1630
 3740SOL     OW11279   5.446   0.620   1.204 -0.2985 -0.1741 -0.5002
 3740SOL    HW111280   5.474   0.690   1.145  0.6274 -0.9593 -1.0294
 3740SOL    HW211281   5.423   0.548   1.145  0.8218 -1.0401  0.0721
 3741SOL     OW11282   1.468   2.623   1.198  0.1725 -0.5958  0.3513
 3741SOL    HW111283   1.397   2.631   1.135 -0.9098 -1.3801  1.4158
 3741SOL    HW211284   1.531   2.564   1.157 -1.6095 -3.0161  0.8595
 3742SOL     OW11285   1.829   5.005   2.500 -0.1603 -0.1045 -0.2311
 3742SOL    HW111286   1.874   5.022   2.418 -0.5362  1.1957 -0.1916
 3742SOL    HW211287   1.880   5.053   2.566 -0.0298 -0.8907  0.2593
 3743SOL     OW11288   2.086   4.842   3.633  0.7657  0.6795 -0.3967
 3743SOL    HW111289   2.075   4.882   3.546  0.7033  1.6898  0.0655
 3743SOL    HW211290   2.181   4.834   3.643  0.7607 -1.6362 -1.5112
 3744SOL     OW11291   3.268   1.423   1.548 -0.2764  0.3112  0.1026
 3744SOL    HW111292   3.243   1.342   1.503 -1.7243  1.2765 -0.9179
 3744SOL    HW211293   3.352   1.447   1.510  1.0081 -1.5356  1.5940
 3745SOL     OW11294   4.937   0.498   3.492  0.7020 -0.0430 -0.1049
 3745SOL    HW111295   4.975   0.582   3.465  1.4477 -0.1830  0.4943
 3745SOL    HW211296   4.854   0.522   3.534  0.7906  0.3739 -0.1668
 3746SOL     OW11297   2.143   3.112   1.214 -0.1162 -1.0103 -0.6900
 3746SOL    HW111298   2.206   3.106   1.142 -0.6626  0.1644 -1.2931
 3746SOL    HW211299   2.113   3.203   1.212  0.0846 -0.8639  1.2283
 3747SOL     OW11300   0.462   4.048   3.268 -0.0191 -0.3363  0.1877
 3747SOL    HW111301   0.479   4.065   3.176 -1.3195 -0.4321 -0.0782
 3747SOL    HW211302   0.471   3.953   3.277  0.3935 -0.2959  0.2273
 3748SOL     OW11303   2.247   2.236   1.602 -0.2804 -0.1974 -0.2059
 3748SOL    HW111304   2.264   2.290   1.679 -0.2340 -1.1384  0.4627
 3748SOL    HW211305   2.180   2.284   1.554 -1.8063 -0.5365  1.4597
 3749SOL     OW11306   3.277   4.915   1.544  0.5929  0.3007 -0.8487
 3749SOL    HW111307   3.349   4.956   1.592  0.9081  0.7267 -1.6538
 3749SOL    HW211308   3.320   4.865   1.475  0.1287  0.6007 -1.3728
 3750SOL     OW11309   2.061   3.602   1.407 -0.0450  0.0506  0.7516
 3750SOL    HW111310   2.010   3.683   1.407  1.0545  0.7814  1.8889
 3750SOL    HW211311   2.010   3.541   1.460 -0.1933  0.4844  1.1167
 3751SOL     OW11312   1.888   2.441   3.979 -0.4418 -0.0077  0.1683
 3751SOL    HW111313   1.907   2.516   4.035 -1.1968 -0.8272  1.5930
 3751SOL    HW211314   1.926   2.464   3.894  0.3464  1.4764  0.8795
 3752SOL     OW11315   2.768   3.010   3.676  0.2193  0.2213  0.1183
 3752SOL    HW111316   2.776   2.945   3.607  0.3844  0.6073 -0.2260
 3752SOL    HW211317   2.710   2.970   3.740 -0.6264  0.2007 -0.6467
 3753SOL     OW11318   0.700   0.185   0.992 -0.5317 -0.1746  0.4506
 3753SOL    HW111319   0.715   0.095   1.020 -3.3073 -1.2882 -1.0988
 3753SOL    HW211320   0.650   0.225   1.063 -2.2688 -1.0409 -0.2115
 3754SOL     OW11321   0.152   0.269   0.466  0.2769 -0.0440 -0.3607
 3754SOL    HW111322   0.086   0.321   0.512 -0.8268 -1.7075  0.0524
 3754SOL    HW211323   0.134   0.283   0.373  1.1131  1.6154 -0.3094
 3755SOL     OW11324   2.349   3.713   0.849  0.2114 -0.4771 -0.2451
 3755SOL    HW111325   2.340   3.631   0.801 -1.6099 -0.3977 -0.1033
 3755SOL    HW211326   2.326   3.690   0.939 -1.9540  0.4576 -0.4960
 3756SOL     OW11327   1.131   0.466   3.898  0.4710  0.2676 -0.9217
 3756SOL    HW111328   1.055   0.407   3.898 -0.0557  0.8970  0.7556
 3756SOL    HW211329   1.097   0.548   3.860 -0.2515  1.1528  1.4712
 3757SOL     OW11330   0.166   3.193   4.298 -0.5153 -0.5001  0.0151
 3757SOL    HW111331   0.080   3.231   4.279  0.0357  0.2345 -1.1426
 3757SOL    HW211332   0.148   3.120   4.357 -1.5862  2.1981  3.4385
 3758SOL     OW11333   1.864   4.716   2.992  0.0844  0.0783  0.1805
 3758SOL    HW111334   1.819   4.752   3.069  1.7282 -0.7625  1.6134
 3758SOL    HW211335   1.917   4.788   2.959  0.6052  0.0230  0.8556
 3759SOL     OW11336   5.306   4.166   1.615 -0.0019 -0.2639 -0.1485
 3759SOL    HW111337   5.382   4.129   1.568 -0.1586 -0.6654 -0.0892
 3759SOL    HW211338   5.234   4.160   1.552 -0.0582 -0.1819 -0.0916
 3760SOL     OW11339   3.348   1.812   0.169  0.2864  0.4311  0.4796
 3760SOL    HW111340   3.262   1.771   0.178  0.4504 -0.1314 -0.4247
 3760SOL    HW211341   3.332   1.888   0.113  0.5596 -0.2810 -0.5753
 3761SOL     OW11342   1.529   3.742   0.813 -0.0139  0.0865  0.1479
 3761SOL    HW111343   1.596   3.809   0.815 -0.0335  0.0950  0.5750
 3761SOL    HW211344   1.577   3.660   0.801  0.0299  0.1478 -0.0959
 3762SOL     OW11345   1.051   0.572   2.392 -0.1933  0.0729  0.6938
 3762SOL    HW111346   0.960   0.602   2.386 -0.4123 -0.4561  1.3160
 3762SOL    HW211347   1.062   0.516   2.315 -1.2210 -2.0032  1.9796
 3763SOL     OW11348   5.103   5.031   4.226 -0.0077 -0.2718 -0.1608
 3763SOL    HW111349   5.077   5.004   4.314  2.1875 -1.4928  0.1850
 3763SOL    HW211350   5.182   4.980   4.208  1.3230  2.1414 -1.6414
 3764SOL     OW11351   5.261   1.199   2.240  0.2545 -0.1536  0.2452
 3764SOL    HW111352   5.342   1.161   2.272 -0.7273 -1.7086  0.9705
 3764SOL    HW211353   5.279   1.218   2.147  1.9148  0.9761  0.7484
 3765SOL     OW11354   1.089   0.322   1.331 -0.0872  0.0277 -0.4227
 3765SOL    HW111355   1.120   0.388   1.269  0.0965  3.4196  2.9127
 3765SOL    HW211356   0.995   0.314   1.312  0.1281  0.2527 -1.6971
 3766SOL     OW11357   1.463   0.377   2.247  0.3002 -0.5133 -0.5649
 3766SOL    HW111358   1.489   0.288   2.223  1.6009 -0.3715  0.2355
 3766SOL    HW211359   1.478   0.428   2.167 -0.8786 -1.0800 -1.1630
 3767SOL     OW11360   0.516   2.348   4.107 -0.2308  0.0037  0.3640
 3767SOL    HW111361   0.555   2.427   4.145 -0.6425 -0.1020  1.0212
 3767SOL    HW211362   0.555   2.276   4.157  0.2058 -0.2247 -0.2875
 3768SOL     OW11363   4.066   1.209   3.450  0.0770  0.1436  0.1432
 3768SOL    HW111364   3.996   1.238   3.392 -0.1309 -0.9770 -0.1931
 3768SOL    HW211365   4.067   1.273   3.521 -0.9287  0.4739 -0.1232
 3769SOL     OW11366   5.113   3.312   4.246 -0.0048  0.7414  0.0324
 3769SOL    HW111367   5.083   3.258   4.173  0.9802  0.5283 -0.2314
 3769SOL    HW211368   5.096   3.259   4.324 -0.8169  0.8600 -0.0566
 3770SOL     OW11369   1.773   4.072   1.227  0.2345 -0.3081 -0.1289
 3770SOL    HW111370   1.730   4.075   1.313  1.1195 -2.6359  0.4740
 3770SOL    HW211371   1.863   4.047   1.247  0.4503 -0.8922 -1.7282
 3771SOL     OW11372   1.614   1.972   1.129 -0.4567  0.0513  0.0705
 3771SOL    HW111373   1.676   1.925   1.073  0.8751  0.9337  0.7542
 3771SOL    HW211374   1.564   2.027   1.068  1.3367  1.4069 -0.2492
 3772SOL     OW11375   0.838   4.542   0.630  0.4064 -0.3585  0.0736
 3772SOL    HW111376   0.898   4.512   0.561 -0.5413 -0.6827 -0.6221
 3772SOL    HW211377   0.830   4.468   0.690 -1.1044 -1.1782 -1.0797
 3773SOL     OW11378   0.690   1.872   0.085  0.1110 -0.1080 -0.4488
 3773SOL    HW111379   0.760   1.927   0.121 -1.4541  1.0330  1.0054
 3773SOL    HW211380   0.705   1.874  -0.010  0.6672  2.1174 -0.3720
 3774SOL     OW11381   2.259   2.346   3.303  0.0826  0.4703  0.1446
 3774SOL    HW111382   2.217   2.409   3.362  0.3466  0.8622 -0.0846
 3774SOL    HW211383   2.320   2.398   3.251  0.1745  0.0539 -0.1711
 3775SOL     OW11384   1.816   3.259   3.862 -0.2911  0.4242 -0.3598
 3775SOL    HW111385   1.819   3.331   3.798  1.8878 -0.6335 -1.5514
 3775SOL    HW211386   1.886   3.279   3.924  2.1786 -1.8760 -2.2040
 3776SOL     OW11387   0.243   0.216   1.708  0.3734 -0.3469  0.3338
 3776SOL    HW111388   0.318   0.195   1.652  0.5080 -1.8919  1.0461
 3776SOL    HW211389   0.203   0.292   1.666  2.5156  0.7431  0.1260
 3777SOL     OW11390   1.466   4.653   2.506  0.1133 -0.0266 -0.6232
 3777SOL    HW111391   1.505   4.578   2.551 -0.1873  0.6684  0.8642
 3777SOL    HW211392   1.506   4.730   2.548  0.3087  0.6528 -2.0154
 3778SOL     OW11393   3.586   2.509   0.319 -0.6118  0.0573 -0.2679
 3778SOL    HW111394   3.579   2.431   0.374  0.3208 -0.0478 -0.2959
 3778SOL    HW211395   3.678   2.515   0.296 -0.8914  0.4407 -1.3345
 3779SOL     OW11396   0.045   2.231   3.620  0.7935  0.6523  0.1095
 3779SOL    HW111397   0.065   2.159   3.680  2.8212  0.3723 -0.8236
 3779SOL    HW211398  -0.038   2.267   3.652  1.0293 -0.4669  2.1180
 3780SOL     OW11399   3.941   1.769   3.805  0.4857  0.1165  0.4205
 3780SOL    HW111400   3.895   1.700   3.757  0.0457 -0.1545  1.2142
 3780SOL    HW211401   3.944   1.737   3.895  2.8904 -0.2181  0.2794
 3781SOL     OW11402   3.459   0.712   3.412 -0.1868 -0.3096 -0.1716
 3781SOL    HW111403   3.374   0.709   3.368  0.2556 -0.8196 -1.0145
 3781SOL    HW211404   3.515   0.763   3.353  0.1438 -0.1180  0.2978
 3782SOL     OW11405   3.374   1.073   0.959 -0.1357  0.0334  0.5203
 3782SOL    HW111406   3.466   1.054   0.976 -0.0339 -0.2191 -0.2611
 3782SOL    HW211407   3.374   1.160   0.918 -0.1149 -0.4794 -0.6080
 3783SOL     OW11408   4.094   3.479   3.528  0.2080  0.1570 -0.2433
 3783SOL    HW111409   4.005   3.503   3.501 -0.0521 -1.5684 -1.0689
 3783SOL    HW211410   4.092   3.484   3.624 -0.9176 -0.2462 -0.2329
 3784SOL     OW11411   3.051   1.488   1.023 -0.3605  0.1045  0.2007
 3784SOL    HW111412   3.122   1.522   1.078 -1.7412  0.7051  1.6816
 3784SOL    HW211413   3.061   1.534   0.940  0.5537  0.6982  0.6224
 3785SOL     OW11414   0.131   1.902   0.020  0.3780 -0.0625  0.0349
 3785SOL    HW111415   0.073   1.834   0.053  2.0120 -1.6138 -0.1131
 3785SOL    HW211416   0.135   1.967   0.090  1.3325 -1.7589  1.6365
 3786SOL     OW11417   0.259   2.104   1.934 -0.0006 -0.5958  0.1104
 3786SOL    HW111418   0.302   2.094   2.019  0.0282  0.2277  0.1976
 3786SOL    HW211419   0.175   2.145   1.954 -0.0122 -0.4401 -0.2485
 3787SOL     OW11420   0.088   0.938   3.733  0.6987 -0.2073  0.5788
 3787SOL    HW111421   0.057   0.889   3.657 -0.3430  0.7653  0.3437
 3787SOL    HW211422   0.019   0.928   3.798 -0.1250  1.8315  0.1152
 3788SOL     OW11423   3.156   1.644   1.255 -0.0756  0.3430 -0.4107
 3788SOL    HW111424   3.158   1.717   1.193 -0.5422  0.5923 -0.1388
 3788SOL    HW211425   3.115   1.680   1.333 -2.6129 -0.8189 -1.0939
 3789SOL     OW11426   0.949   3.172   2.413  0.4994 -0.3409  0.6336
 3789SOL    HW111427   0.906   3.092   2.381  0.5556  0.0400 -0.4414
 3789SOL    HW211428   1.039   3.166   2.379 -0.2777  1.5860 -2.1609
 3790SOL     OW11429   0.694   4.656   2.959  0.0097 -0.4077 -0.5548
 3790SOL    HW111430   0.781   4.672   2.997 -0.5898  2.0571 -0.0394
 3790SOL    HW211431   0.664   4.743   2.933 -3.4619 -0.7544  1.7722
 3791SOL     OW11432   4.422   3.359   1.771 -0.1060  0.3560  0.3421
 3791SOL    HW111433   4.359   3.307   1.721  0.4784 -0.4970  0.4698
 3791SOL    HW211434   4.402   3.340   1.863  0.3148  0.0950  0.3840
 3792SOL     OW11435   3.905   2.011   1.271 -0.4896  0.5874  0.1949
 3792SOL    HW111436   3.920   1.916   1.276 -0.2362  0.6539  0.7903
 3792SOL    HW211437   3.874   2.035   1.359 -0.3283  1.0947  0.1166
 3793SOL     OW11438   1.210   3.148   3.253 -0.1642  0.4512 -0.1152
 3793SOL    HW111439   1.164   3.166   3.172 -0.2147 -0.0538 -0.2044
 3793SOL    HW211440   1.147   3.099   3.306  0.2541 -0.2533 -0.2400
 3794SOL     OW11441   0.734   4.824   3.585  0.5584  0.6036  0.4264
 3794SOL    HW111442   0.790   4.891   3.544 -0.0049  2.0572  1.9401
 3794SOL    HW211443   0.650   4.832   3.540  0.3212  1.3299  0.9839
 3795SOL     OW11444   0.816   0.432   0.613 -0.1622  0.1329  0.3523
 3795SOL    HW111445   0.790   0.475   0.695  1.2620 -0.5160  1.1866
 3795SOL    HW211446   0.858   0.351   0.641  1.6764  0.5683 -0.9166
 3796SOL     OW11447   4.709   4.917   4.137  0.2511 -0.3647 -0.1037
 3796SOL    HW111448   4.776   4.984   4.148  0.7187 -0.9964  0.9916
 3796SOL    HW211449   4.730   4.876   4.053 -0.3478  1.1792 -1.0404
 3797SOL     OW11450   2.171   5.129   3.589 -0.1895  0.4812  0.4689
 3797SOL    HW111451   2.078   5.125   3.610 -0.7279 -0.1760 -1.7690
 3797SOL    HW211452   2.174   5.166   3.501  1.7086  0.7273  0.5972
 3798SOL     OW11453   2.967   1.611   1.799 -0.0545  0.5062  0.1176
 3798SOL    HW111454   2.978   1.659   1.881  0.4864  2.1880 -0.8813
 3798SOL    HW211455   3.044   1.636   1.747  0.6821 -2.1300 -0.1724
 3799SOL     OW11456   4.326   4.078   1.600 -0.0914  0.5742  0.3514
 3799SOL    HW111457   4.305   4.020   1.673 -0.6736  2.3387  1.6562
 3799SOL    HW211458   4.415   4.053   1.574 -0.3943 -1.0084  0.7108
 3800SOL     OW11459   0.560   2.384   4.416 -0.5633  0.6150  0.1787
 3800SOL    HW111460   0.481   2.433   4.394 -0.1496  0.8804 -0.7437
 3800SOL    HW211461   0.563   2.386   4.512  0.3999  3.9354  0.1936
 3801SOL     OW11462   0.247   0.083   1.945 -0.8103  0.2883 -0.3399
 3801SOL    HW111463   0.340   0.071   1.963 -1.4113 -2.0915  1.6388
 3801SOL    HW211464   0.245   0.123   1.858  2.0321  0.5177 -0.3972
 3802SOL     OW11465   4.012   4.607   3.586 -0.0924  0.5369 -0.1588
 3802SOL    HW111466   4.093   4.650   3.612 -0.0506  0.6751 -0.5164
 3802SOL    HW211467   3.993   4.641   3.499  0.0099 -0.2653 -0.5023
 3803SOL     OW11468   5.240   3.142   0.675  0.4174  0.3551  0.1131
 3803SOL    HW111469   5.254   3.204   0.746  2.5359 -1.4926  1.4141
 3803SOL    HW211470   5.324   3.096   0.665 -0.0971 -0.1762 -2.9116
 3804SOL     OW11471   2.916   2.521   3.256 -0.7236 -0.3537 -0.2905
 3804SOL    HW111472   2.871   2.464   3.193 -3.6243  0.0653  1.2248
 3804SOL    HW211473   3.003   2.534   3.218 -1.4794 -2.0883 -2.9441
 3805SOL     OW11474   0.337   1.299   1.094 -0.0720 -0.5199 -0.0364
 3805SOL    HW111475   0.303   1.377   1.049 -1.5564 -1.6083 -0.8821
 3805SOL    HW211476   0.418   1.278   1.048  0.8614  1.0211  0.8002
 3806SOL     OW11477   3.788   1.782   0.957 -0.5391  0.1565  0.1413
 3806SOL    HW111478   3.830   1.733   1.028 -0.6035 -0.3558 -0.1734
 3806SOL    HW211479   3.811   1.733   0.877 -0.4787  0.7197 -0.1906
 3807SOL     OW11480   0.785   5.064   0.362  0.3560 -0.5984 -0.4717
 3807SOL    HW111481   0.826   5.141   0.401  2.3735 -1.4973 -0.6771
 3807SOL    HW211482   0.707   5.047   0.415  0.1595  1.2518 -0.1184
 3808SOL     OW11483   2.004   4.184   3.081 -0.4017 -0.1697  0.0612
 3808SOL    HW111484   2.095   4.185   3.052 -0.4644  1.3672 -0.1784
 3808SOL    HW211485   1.995   4.264   3.133 -1.6236 -0.2945  0.0740
 3809SOL     OW11486   5.263   1.240   3.508 -0.5313  0.0586 -0.0954
 3809SOL    HW111487   5.207   1.284   3.444 -0.6832 -1.0479 -0.7646
 3809SOL    HW211488   5.330   1.305   3.531 -1.8030  1.2359  0.3573
 3810SOL     OW11489   2.163   0.545   2.704 -0.7958 -0.2620 -0.1525
 3810SOL    HW111490   2.087   0.602   2.715 -0.2545  0.3177  0.7051
 3810SOL    HW211491   2.227   0.578   2.766 -0.4119 -1.7170  0.2794
 3811SOL     OW11492   3.557   2.445   3.475 -0.5589  0.5524  0.6310
 3811SOL    HW111493   3.527   2.531   3.505 -1.5821  0.0419  1.1159
 3811SOL    HW211494   3.550   2.389   3.551  0.8697  0.1908  0.5347
 3812SOL     OW11495   2.772   1.894   0.520 -0.0628 -0.3227 -0.5091
 3812SOL    HW111496   2.797   1.865   0.432  0.7890  0.8016 -0.6696
 3812SOL    HW211497   2.736   1.982   0.507  0.1569 -0.1092  0.2642
 3813SOL     OW11498   2.715   2.851   3.449  0.0995 -0.6216  0.5735
 3813SOL    HW111499   2.634   2.821   3.491 -0.7509 -1.2250 -1.3844
 3813SOL    HW211500   2.776   2.778   3.461 -0.0284 -0.6645  0.9895
 3814SOL     OW11501   2.979   4.387   1.631  0.0385 -0.0045 -0.4271
 3814SOL    HW111502   3.036   4.372   1.706 -0.1397 -0.6827 -0.4207
 3814SOL    HW211503   3.022   4.455   1.580 -0.5255  1.4964  1.0192
 3815SOL     OW11504   1.668   1.732   1.591  0.0376  0.4078 -0.4993
 3815SOL    HW111505   1.658   1.639   1.613 -2.4252  0.0352 -2.6438
 3815SOL    HW211506   1.740   1.762   1.646 -0.3356 -2.2801  1.7058
 3816SOL     OW11507   2.189   4.027   3.871  0.0067  0.1421  0.4968
 3816SOL    HW111508   2.152   4.061   3.953  1.3502 -1.7124  1.9453
 3816SOL    HW211509   2.139   3.948   3.853 -0.3487  0.5940 -0.5761
 3817SOL     OW11510   1.756   1.938   2.447  0.4016 -0.0002 -0.3102
 3817SOL    HW111511   1.719   1.858   2.484 -0.3334 -0.7321 -2.4537
 3817SOL    HW211512   1.838   1.910   2.406  0.7612  0.6037 -0.0203
 3818SOL     OW11513   0.494   3.438   0.790 -0.0403  0.1906  0.4015
 3818SOL    HW111514   0.567   3.380   0.770  0.9177  1.2538  0.6908
 3818SOL    HW211515   0.466   3.472   0.705  1.2013  1.3815  0.4225
 3819SOL     OW11516   3.053   0.667   2.036  0.2259 -0.9653 -0.1683
 3819SOL    HW111517   3.010   0.582   2.037 -0.7481 -0.4916 -0.6132
 3819SOL    HW211518   3.123   0.658   1.971  2.4110 -2.4645  2.1997
 3820SOL     OW11519   3.422   4.056   1.002  0.6642 -0.0559 -0.3256
 3820SOL    HW111520   3.343   4.100   0.973  0.7680 -0.6346 -1.5361
 3820SOL    HW211521   3.459   4.017   0.923  3.0158  1.4902 -0.0957
 3821SOL     OW11522   4.677   2.682   3.340  0.1650 -0.2629  0.2918
 3821SOL    HW111523   4.633   2.752   3.388 -0.4910 -0.5047  0.0558
 3821SOL    HW211524   4.681   2.609   3.402  0.4285 -0.1659  0.3866
 3822SOL     OW11525   5.146   1.239   0.878 -0.0743 -0.2519 -0.0110
 3822SOL    HW111526   5.201   1.194   0.815 -1.3455 -0.5703 -0.9204
 3822SOL    HW211527   5.085   1.290   0.825 -0.2012  0.6577  0.9794
 3823SOL     OW11528   4.903   2.927   1.674  0.0516  0.0402  0.3052
 3823SOL    HW111529   4.873   2.844   1.709 -0.9977  0.2432 -0.0823
 3823SOL    HW211530   4.996   2.913   1.656  0.1050 -0.7472  1.0925
 3824SOL     OW11531   2.506   2.315   4.374  0.1512  0.6341 -0.5351
 3824SOL    HW111532   2.590   2.357   4.355  0.3852  0.6844  0.5355
 3824SOL    HW211533   2.513   2.227   4.336  0.5453  0.7633 -0.7634
 3825SOL     OW11534   1.645   2.854   1.452  0.1287  0.4753 -0.2117
 3825SOL    HW111535   1.676   2.767   1.425 -2.5538 -0.1493 -1.6344
 3825SOL    HW211536   1.663   2.910   1.377  0.3547  0.7670  0.0589
 3826SOL     OW11537   0.292   0.795   3.973 -0.3403 -0.2059  0.1338
 3826SOL    HW111538   0.252   0.727   4.027  2.9239 -2.2511  0.2244
 3826SOL    HW211539   0.244   0.789   3.890 -0.2728 -2.5723  0.1863
 3827SOL     OW11540   3.627   1.348   2.999  0.0906  0.1864 -0.1252
 3827SOL    HW111541   3.639   1.406   3.075 -0.9455 -0.8215  0.8369
 3827SOL    HW211542   3.579   1.401   2.936  0.2266  0.7669  0.2502
 3828SOL     OW11543   3.617   3.650   0.279  0.3672  0.0618  0.2238
 3828SOL    HW111544   3.671   3.701   0.218 -0.0478 -1.1641 -1.2342
 3828SOL    HW211545   3.588   3.713   0.344  0.0747  1.6490 -1.3712
 3829SOL     OW11546   0.292   2.552   0.452 -0.6744 -0.2225 -0.5415
 3829SOL    HW111547   0.285   2.494   0.377  1.3310 -1.0360 -0.1552
 3829SOL    HW211548   0.252   2.504   0.524 -1.0908 -0.1320 -0.7058
 3830SOL     OW11549   1.771   3.727   1.714 -0.2681 -0.4318  0.5279
 3830SOL    HW111550   1.729   3.641   1.716 -1.2963  0.0195 -0.4793
 3830SOL    HW211551   1.774   3.751   1.621 -3.1305  2.0484  0.9238
 3831SOL     OW11552   5.471   2.196   1.953 -0.0805  0.5017  0.3292
 3831SOL    HW111553   5.390   2.175   2.000 -1.1182  1.5908 -0.9143
 3831SOL    HW211554   5.472   2.137   1.878 -1.2385  2.3858 -1.2509
 3832SOL     OW11555   4.108   2.005   2.461  0.2095  0.2109 -0.1765
 3832SOL    HW111556   4.093   2.079   2.520 -0.5920  0.4683 -0.6919
 3832SOL    HW211557   4.189   2.028   2.415  0.0137  0.7413 -0.2741
 3833SOL     OW11558   1.698   3.711   0.319 -0.0014  0.3670  0.4389
 3833SOL    HW111559   1.730   3.658   0.246 -1.4197  0.0885 -0.0137
 3833SOL    HW211560   1.645   3.651   0.370 -0.3987  0.9816  0.7592
 3834SOL     OW11561   5.138   2.877   1.913 -0.1877 -0.9628  0.0701
 3834SOL    HW111562   5.055   2.923   1.927  0.6470  0.4038  0.7889
 3834SOL    HW211563   5.164   2.901   1.824  0.8462  1.0706  0.8537
 3835SOL     OW11564   0.067   1.383   0.837 -0.2129 -0.1191 -0.3941
 3835SOL    HW111565  -0.000   1.326   0.875 -0.3675 -0.0400 -0.5476
 3835SOL    HW211566   0.128   1.323   0.794 -0.5648 -0.1458 -0.8563
 3836SOL     OW11567   0.087   4.762   2.556 -0.2013 -0.5401 -0.2162
 3836SOL    HW111568   0.087   4.758   2.460  1.9582 -0.0908 -0.2839
 3836SOL    HW211569   0.100   4.671   2.584 -1.2315 -0.7291 -0.3181
 3837SOL     OW11570   1.936   2.753   1.024 -0.0977  0.1746 -0.2280
 3837SOL    HW111571   1.849   2.730   0.991 -0.1946  1.9271 -1.3256
 3837SOL    HW211572   1.996   2.721   0.956 -0.1033  1.3666 -0.8163
 3838SOL     OW11573   5.229   2.982   1.031  0.6452  0.3328 -0.0503
 3838SOL    HW111574   5.255   2.906   1.082  0.1490 -0.1651 -0.5312
 3838SOL    HW211575   5.283   3.053   1.065  2.5300 -0.6187 -0.9024
 3839SOL     OW11576   3.081   4.111   2.288 -0.2433  0.5781 -0.1469
 3839SOL    HW111577   3.106   4.039   2.230  0.6433  0.8435 -0.1042
 3839SOL    HW211578   3.001   4.080   2.331  0.5895 -0.7450  0.5108
 3840SOL     OW11579   1.881   1.288   4.118  0.0128  0.2509  0.6012
 3840SOL    HW111580   1.884   1.229   4.194 -1.0901  0.6013  0.9356
 3840SOL    HW211581   1.969   1.326   4.113  0.4989 -0.8068  0.8692
 3841SOL     OW11582   3.913   0.560   2.417  0.5154  0.3989  0.1105
 3841SOL    HW111583   3.826   0.527   2.395 -0.3632  2.7026 -0.0939
 3841SOL    HW211584   3.966   0.481   2.426 -1.2962 -1.0313 -0.9167
 3842SOL     OW11585   2.490   2.769   3.543  1.1755 -0.1384 -0.4045
 3842SOL    HW111586   2.397   2.792   3.540  1.3668  0.7520  0.1383
 3842SOL    HW211587   2.495   2.684   3.499  0.2231  0.1695 -1.1502
 3843SOL     OW11588   1.253   2.703   0.153  0.2199 -0.1814  0.2791
 3843SOL    HW111589   1.180   2.659   0.196  0.3051 -0.6760 -0.0753
 3843SOL    HW211590   1.223   2.718   0.063 -0.3420  1.7419  0.7443
 3844SOL     OW11591   3.100   2.279   3.768  0.1288 -0.2134  0.5275
 3844SOL    HW111592   3.010   2.283   3.736  0.4108  0.2047 -0.2639
 3844SOL    HW211593   3.123   2.370   3.785  0.0767 -0.4087  1.7109
 3845SOL     OW11594   0.595   2.707   1.567 -0.3875 -0.2682  0.1863
 3845SOL    HW111595   0.669   2.670   1.616  1.0402  1.4156 -0.5685
 3845SOL    HW211596   0.566   2.781   1.621  1.0790  1.4897 -1.2667
 3846SOL     OW11597   1.367   1.961   2.920 -0.0866 -0.2894  0.3955
 3846SOL    HW111598   1.282   1.982   2.882 -0.2889 -0.5975  0.6786
 3846SOL    HW211599   1.411   1.908   2.853  0.3449  0.8422 -0.2358
 3847SOL     OW11600   4.915   2.215   1.858 -0.1118 -0.5663  0.2860
 3847SOL    HW111601   4.895   2.276   1.787  0.0783 -0.2762  0.4752
 3847SOL    HW211602   4.849   2.235   1.925 -0.0968 -0.6203  0.3166
 3848SOL     OW11603   3.313   1.881   2.068  0.2861 -0.2145 -0.2976
 3848SOL    HW111604   3.365   1.952   2.029 -0.6102 -0.8581 -2.8449
 3848SOL    HW211605   3.371   1.843   2.134  3.2839 -0.9981 -3.0556
 3849SOL     OW11606   3.800   1.965   0.021 -0.0469  0.2087  0.1608
 3849SOL    HW111607   3.759   2.035  -0.030  0.1252  0.9743  1.0443
 3849SOL    HW211608   3.727   1.918   0.061 -0.2103 -0.7393 -1.2042
 3850SOL     OW11609   0.951   4.428   2.000 -0.4928  0.3339  0.0760
 3850SOL    HW111610   1.034   4.389   1.972 -0.0132  0.9667  0.5828
 3850SOL    HW211611   0.965   4.450   2.092 -1.3180  0.2029  0.2378
 3851SOL     OW11612   0.619   1.540   2.868 -0.1160  0.3392  0.0086
 3851SOL    HW111613   0.686   1.559   2.933 -0.5725  0.3713  0.4695
 3851SOL    HW211614   0.562   1.617   2.867 -1.1852 -0.4015  0.9148
 3852SOL     OW11615   4.595   3.957   1.560  0.1184  0.4266  0.3352
 3852SOL    HW111616   4.608   3.900   1.636  1.1323  1.8173  1.2799
 3852SOL    HW211617   4.557   3.901   1.493  1.0715 -1.3473  1.2010
 3853SOL     OW11618   0.922   3.801   2.217 -0.3760 -0.2740 -0.8898
 3853SOL    HW111619   0.855   3.809   2.285  0.2796  0.5727 -0.3129
 3853SOL    HW211620   0.892   3.859   2.147 -0.7061 -0.6207 -1.0432
 3854SOL     OW11621   0.279   0.657   1.557  0.5318  0.7019 -0.1871
 3854SOL    HW111622   0.292   0.735   1.504  0.7326  0.8972  0.1454
 3854SOL    HW211623   0.367   0.635   1.590  0.1532  1.7050  1.6170
 3855SOL     OW11624   2.722   1.656   4.243  0.6116 -0.1871 -0.8117
 3855SOL    HW111625   2.705   1.726   4.179  0.9358 -0.2122 -0.9274
 3855SOL    HW211626   2.692   1.693   4.327 -1.4285 -0.7920 -1.2204
 3856SOL     OW11627   2.035   0.718   1.165 -0.5048 -0.0539  0.0470
 3856SOL    HW111628   2.075   0.656   1.104  1.6124  0.5472  0.7376
 3856SOL    HW211629   2.042   0.675   1.250  0.8797  1.0020  0.5143
 3857SOL     OW11630   4.481   2.231   2.672 -0.1360 -0.3550  0.4962
 3857SOL    HW111631   4.492   2.293   2.745  0.3704 -1.5621  1.4771
 3857SOL    HW211632   4.440   2.283   2.603 -0.4829  0.8673  1.5794
 3858SOL     OW11633   2.014   4.956   2.922  0.2340  0.3172 -0.0992
 3858SOL    HW111634   1.995   5.037   2.968  0.2962  0.6392 -0.6334
 3858SOL    HW211635   2.103   4.967   2.890  0.5347 -0.2843  0.4947
 3859SOL     OW11636   3.416   5.068   3.114  0.5620  0.0885 -0.1672
 3859SOL    HW111637   3.450   5.064   3.203  0.3433  1.3594 -0.0131
 3859SOL    HW211638   3.455   5.147   3.076  0.1384 -0.0776 -0.9817
 3860SOL     OW11639   4.459   2.858   0.996  0.2424  0.6608  0.3563
 3860SOL    HW111640   4.530   2.874   1.057 -0.3792 -0.7704  1.5190
 3860SOL    HW211641   4.494   2.794   0.934  0.5907  1.4588 -0.2867
 3861SOL     OW11642   2.531   3.045   1.071 -0.1930 -0.1437  0.5466
 3861SOL    HW111643   2.498   3.125   1.111  1.3803 -0.2400  2.1403
 3861SOL    HW211644   2.571   3.074   0.989 -2.7506  0.1564 -0.7193
 3862SOL     OW11645   2.177   4.849   3.922  0.0811 -1.3097 -0.0609
 3862SOL    HW111646   2.152   4.829   3.832 -2.4933 -1.4781  0.6289
 3862SOL    HW211647   2.186   4.945   3.924 -0.2848 -1.2674 -0.4035
 3863SOL     OW11648   0.011   3.414   3.086  0.3021  0.2511  0.1683
 3863SOL    HW111649   0.019   3.328   3.045  0.9436  0.0771  0.6414
 3863SOL    HW211650   0.092   3.460   3.064  0.1765  0.5581  0.3252
 3864SOL     OW11651   1.132   5.054   1.394 -0.1045 -0.0404 -0.0992
 3864SOL    HW111652   1.228   5.057   1.395 -0.1007  0.0578 -0.5529
 3864SOL    HW211653   1.108   5.089   1.309 -0.5347 -0.4198 -0.1343
 3865SOL     OW11654   3.361   1.137   1.867  0.2075  0.0457 -0.2165
 3865SOL    HW111655   3.451   1.171   1.862  0.1438  0.3053  0.3189
 3865SOL    HW211656   3.308   1.214   1.888  0.2895 -0.6102  2.9547
 3866SOL     OW11657   0.955   3.454   1.200  0.2432  0.0864 -0.0221
 3866SOL    HW111658   0.970   3.408   1.283  1.2128 -0.1396 -0.3173
 3866SOL    HW211659   0.991   3.541   1.213 -0.1384  0.2463 -0.0125
 3867SOL     OW11660   0.304   4.651   3.097 -0.2046  0.4596  0.0909
 3867SOL    HW111661   0.365   4.691   3.035  0.3326  0.5358  0.6601
 3867SOL    HW211662   0.220   4.692   3.076 -0.0382  0.4591 -0.6052
 3868SOL     OW11663   5.407   2.862   3.500  0.3447  0.2154 -0.3843
 3868SOL    HW111664   5.388   2.903   3.584  1.6126  1.6973 -0.7876
 3868SOL    HW211665   5.456   2.783   3.522  0.1253  0.2611  0.2891
 3869SOL     OW11666   3.028   5.154   2.414  0.1808  0.3166  0.2178
 3869SOL    HW111667   2.946   5.186   2.451  0.7050  1.2398  0.6226
 3869SOL    HW211668   3.092   5.223   2.434  0.6227  0.5908 -1.8674
 3870SOL     OW11669   3.288   3.455   0.191 -0.8394  0.0679 -0.2833
 3870SOL    HW111670   3.296   3.432   0.284  3.4982 -1.8547 -0.8785
 3870SOL    HW211671   3.326   3.543   0.185 -0.4586 -0.0952 -0.2995
 3871SOL     OW11672   4.566   3.760   2.487  0.0151 -0.6653  0.0484
 3871SOL    HW111673   4.625   3.806   2.427  2.0452 -1.5264  1.2911
 3871SOL    HW211674   4.529   3.689   2.434 -0.5130  0.3249 -0.9476
 3872SOL     OW11675   1.553   2.212   0.495 -0.1920  0.1482  0.1920
 3872SOL    HW111676   1.604   2.271   0.550  2.0118 -0.7626 -0.7366
 3872SOL    HW211677   1.577   2.124   0.525 -1.5041 -0.3309 -0.0806
 3873SOL     OW11678   0.995   2.313   3.773  0.1493  0.4091  0.3828
 3873SOL    HW111679   0.989   2.348   3.684  3.0381  1.1644  0.4051
 3873SOL    HW211680   1.088   2.301   3.788 -0.2473  0.3818  3.3696
 3874SOL     OW11681   3.725   3.047   0.483 -0.1038 -0.3295 -0.3413
 3874SOL    HW111682   3.676   3.052   0.565 -0.0986  0.7038 -0.3874
 3874SOL    HW211683   3.797   2.987   0.501  1.8381  2.3106  1.4933
 3875SOL     OW11684   1.958   2.811   4.403 -0.2087 -0.1478 -0.2399
 3875SOL    HW111685   1.937   2.902   4.381 -0.2028 -0.1507 -0.2573
 3875SOL    HW211686   1.876   2.764   4.389 -0.0341 -0.2616 -0.8849
 3876SOL     OW11687   2.689   3.923   2.834 -0.6512  0.5543 -0.0046
 3876SOL    HW111688   2.732   3.893   2.914 -1.1197  1.8505  0.7657
 3876SOL    HW211689   2.753   3.906   2.765 -0.4677 -1.1289  0.5315
 3877SOL     OW11690   2.061   3.803   3.918 -0.8371 -0.0476 -0.5135
 3877SOL    HW111691   2.055   3.804   4.014  0.9935 -0.6635 -0.3587
 3877SOL    HW211692   2.026   3.718   3.893 -0.0538 -0.4539 -0.2647
 3878SOL     OW11693   3.554   0.387   1.785 -0.1825 -0.0580 -0.5231
 3878SOL    HW111694   3.595   0.473   1.778  0.8167 -0.4251  0.6207
 3878SOL    HW211695   3.616   0.327   1.743 -0.2460 -0.4047 -0.1256
 3879SOL     OW11696   4.117   0.595   0.384  0.3600  0.2612  0.2813
 3879SOL    HW111697   4.178   0.630   0.319  0.6682 -0.3765  0.2269
 3879SOL    HW211698   4.163   0.521   0.423 -0.8086 -0.9343 -0.5434
 3880SOL     OW11699   1.866   0.824   2.884  0.5725 -0.2482  0.0186
 3880SOL    HW111700   1.774   0.801   2.873  0.6969 -4.1296  4.1906
 3880SOL    HW211701   1.901   0.829   2.795 -3.6752  2.5896 -1.8415
 3881SOL     OW11702   0.455   2.237   1.491  0.6721  0.8760 -0.5622
 3881SOL    HW111703   0.415   2.151   1.475  0.7061  1.0567 -1.6809
 3881SOL    HW211704   0.386   2.287   1.535 -0.4809  1.2645 -2.6882
 3882SOL     OW11705   3.749   4.774   3.705 -0.3087  0.3829 -0.5934
 3882SOL    HW111706   3.837   4.749   3.733 -0.0635 -0.1925 -1.8245
 3882SOL    HW211707   3.704   4.796   3.787  0.6456 -0.3637  0.1636
 3883SOL     OW11708   3.473   3.423   2.511  0.2444 -0.5475 -0.5168
 3883SOL    HW111709   3.563   3.447   2.490  0.1813 -0.2370 -0.4312
 3883SOL    HW211710   3.442   3.492   2.570  0.1546 -0.9861 -0.0462
 3884SOL     OW11711   4.055   4.206   2.179  1.2268 -0.3163  0.6668
 3884SOL    HW111712   4.003   4.271   2.132 -0.5559  0.0317  2.9690
 3884SOL    HW211713   4.064   4.241   2.267  1.2514 -2.6036  1.6426
 3885SOL     OW11714   4.798   0.739   0.765  0.2305  0.1927  0.4945
 3885SOL    HW111715   4.734   0.731   0.835 -0.9458 -3.0574 -0.7927
 3885SOL    HW211716   4.772   0.818   0.717  0.2959  1.7376  2.8332
 3886SOL     OW11717   3.402   3.864   3.745  0.1767 -0.2701 -0.2260
 3886SOL    HW111718   3.444   3.950   3.754 -1.8523  0.7352  0.2024
 3886SOL    HW211719   3.423   3.819   3.827  0.8792 -0.0260 -0.2622
 3887SOL     OW11720   0.829   1.676   2.576 -0.3355 -0.1963 -0.5517
 3887SOL    HW111721   0.898   1.617   2.545  0.2489  0.3194 -0.2581
 3887SOL    HW211722   0.755   1.660   2.517  0.0319 -0.7631 -0.8648
 3888SOL     OW11723   2.716   3.148   2.130 -0.1426 -0.5424 -0.6796
 3888SOL    HW111724   2.667   3.203   2.191  0.0460 -0.1690 -0.8612
 3888SOL    HW211725   2.735   3.069   2.180 -0.5598 -0.5126 -0.4706
 3889SOL     OW11726   3.253   4.508   4.075 -0.3415  0.5563 -0.4820
 3889SOL    HW111727   3.266   4.601   4.093 -0.2084  0.6112 -0.8442
 3889SOL    HW211728   3.161   4.501   4.050 -0.9544  0.2340  1.6853
 3890SOL     OW11729   4.870   4.130   3.675  0.1134  0.7168 -0.1628
 3890SOL    HW111730   4.846   4.047   3.715  0.2552  1.2217  1.0239
 3890SOL    HW211731   4.932   4.107   3.606  0.2736 -0.1393  0.2544
 3891SOL     OW11732   2.831   4.512   3.430  0.0967 -0.4947  0.0595
 3891SOL    HW111733   2.886   4.474   3.361  2.7605  1.5393  0.9044
 3891SOL    HW211734   2.842   4.454   3.505  0.1147 -0.7609 -0.1506
 3892SOL     OW11735   1.166   4.591   1.146  0.2650 -0.1761 -0.3747
 3892SOL    HW111736   1.203   4.622   1.228  0.9185 -3.7677  0.8880
 3892SOL    HW211737   1.072   4.598   1.158  0.2870  3.1075 -1.0916
 3893SOL     OW11738   3.610   1.243   1.779  0.3670 -0.0751 -0.2243
 3893SOL    HW111739   3.678   1.250   1.713  1.3447  1.5230  0.8585
 3893SOL    HW211740   3.596   1.334   1.808 -2.7064 -0.2320 -0.8356
 3894SOL     OW11741   0.138   4.296   0.340  0.7840 -0.0368 -0.0652
 3894SOL    HW111742   0.129   4.326   0.430  0.8003  1.3793 -0.5092
 3894SOL    HW211743   0.168   4.373   0.292 -0.1523 -0.5065 -1.4555
 3895SOL     OW11744   4.975   2.804   1.328  0.3101  0.8574 -0.1364
 3895SOL    HW111745   4.990   2.890   1.289  0.5942  0.2440 -1.4201
 3895SOL    HW211746   4.971   2.744   1.254  1.5921 -0.4662  0.8115
 3896SOL     OW11747   4.199   2.295   1.932  0.4385  0.4129 -0.0185
 3896SOL    HW111748   4.115   2.311   1.975 -0.7284 -0.3679 -1.9136
 3896SOL    HW211749   4.205   2.199   1.927  0.7935  0.4811 -1.1008
 3897SOL     OW11750   4.793   0.327   4.212  0.2308 -0.1363  0.3529
 3897SOL    HW111751   4.835   0.263   4.270 -0.8841  0.1761  1.5681
 3897SOL    HW211752   4.717   0.357   4.262 -0.3773  0.6711 -1.0186
 3898SOL     OW11753   5.139   5.119   2.832  0.4413  0.0437 -0.2646
 3898SOL    HW111754   5.190   5.055   2.883 -0.4763 -0.0393  0.5783
 3898SOL    HW211755   5.194   5.197   2.830  0.3174  0.1898  1.2326
 3899SOL     OW11756   4.720   4.920   4.433  0.2020  0.1392  0.0795
 3899SOL    HW111757   4.713   4.893   4.342 -0.9309 -0.1571  0.2423
 3899SOL    HW211758   4.664   4.998   4.440  2.0765  1.5604  0.0138
 3900SOL     OW11759   1.992   1.046   4.253  0.4111 -0.2681 -0.1385
 3900SOL    HW111760   2.031   0.971   4.296 -0.5378 -2.0417 -2.1725
 3900SOL    HW211761   1.941   1.090   4.322 -1.6454 -3.3585  0.5065
 3901SOL     OW11762   1.745   2.832   1.703 -0.1207  0.1047 -0.3594
 3901SOL    HW111763   1.712   2.840   1.613  0.0641  1.6537 -0.3118
 3901SOL    HW211764   1.685   2.770   1.745 -0.8027  0.1192 -1.2776
 3902SOL     OW11765   1.564   4.944   0.528  0.3108  0.3538  0.0602
 3902SOL    HW111766   1.544   4.904   0.613 -1.4173 -0.7138 -0.8012
 3902SOL    HW211767   1.556   5.039   0.544  1.0073  0.2365  1.2939
 3903SOL     OW11768   4.644   4.029   3.891  0.2270 -0.2927  0.0128
 3903SOL    HW111769   4.657   4.110   3.941 -2.0135  0.0968  0.0715
 3903SOL    HW211770   4.674   3.960   3.950  2.1818  0.4347 -0.0371
 3904SOL     OW11771   0.162   0.170   2.308  0.2960 -0.2268 -0.1787
 3904SOL    HW111772   0.127   0.235   2.369 -1.4098 -0.7900 -0.5288
 3904SOL    HW211773   0.087   0.117   2.282  1.3929 -1.4442 -1.0234
 3905SOL     OW11774   4.951   1.301   0.698  0.6010  0.1512 -0.5601
 3905SOL    HW111775   4.931   1.382   0.650  2.8157  1.0700 -0.0917
 3905SOL    HW211776   4.929   1.231   0.637  0.6435  1.1950 -1.8304
 3906SOL     OW11777   1.233   4.625   2.727  0.0144 -0.2145  0.7879
 3906SOL    HW111778   1.293   4.641   2.800 -0.5113  0.3504  1.1022
 3906SOL    HW211779   1.258   4.690   2.661 -1.8191  1.7360  1.8831
 3907SOL     OW11780   1.444   3.549   1.488  0.7672 -0.6228  0.1409
 3907SOL    HW111781   1.464   3.553   1.395  0.6938 -2.7109 -0.0112
 3907SOL    HW211782   1.356   3.586   1.496  0.9688  0.0253 -0.5289
 3908SOL     OW11783   3.293   1.577   0.869 -0.2074 -0.4923 -0.1693
 3908SOL    HW111784   3.210   1.608   0.833  0.5879 -0.4222 -2.0752
 3908SOL    HW211785   3.340   1.657   0.893 -0.1250 -0.4579 -0.4419
 3909SOL     OW11786   2.579   4.007   2.432 -0.1086 -0.4865 -0.3144
 3909SOL    HW111787   2.518   3.950   2.386 -0.2014 -0.2149 -0.5307
 3909SOL    HW211788   2.665   3.985   2.395 -0.2498  0.1145 -1.0121
 3910SOL     OW11789   2.171   0.139   1.500  0.3929  0.4508  0.8858
 3910SOL    HW111790   2.221   0.076   1.552  1.0648  0.1404 -0.1039
 3910SOL    HW211791   2.234   0.172   1.436 -0.5488  0.4047 -0.0882
 3911SOL     OW11792   4.023   1.878   2.880 -0.2235  0.6850 -0.3216
 3911SOL    HW111793   4.000   1.952   2.937 -0.3075  0.9870 -0.7433
 3911SOL    HW211794   3.952   1.815   2.893  0.5886  0.0196  1.1650
 3912SOL     OW11795   0.934   1.688   3.840 -0.4759 -0.0043 -0.2471
 3912SOL    HW111796   0.890   1.754   3.893  1.0751  1.1868 -0.3520
 3912SOL    HW211797   0.954   1.732   3.757  0.1847 -0.7382 -0.4965
 3913SOL     OW11798   0.084   4.348   1.657 -0.4451  0.1192  0.5099
 3913SOL    HW111799   0.057   4.417   1.596  1.5938  0.5751  0.0435
 3913SOL    HW211800   0.035   4.271   1.629 -0.4391  0.6188 -0.9792
 3914SOL     OW11801   0.016   2.497   0.860  0.1432  0.4304  0.2861
 3914SOL    HW111802  -0.068   2.537   0.838  0.0447 -0.1474 -0.4197
 3914SOL    HW211803  -0.001   2.451   0.942  0.4234  2.3043  1.4469
 3915SOL     OW11804   2.115   1.318   3.738  0.2001  0.3454  0.5755
 3915SOL    HW111805   2.036   1.337   3.788  0.0563 -1.2417  1.0140
 3915SOL    HW211806   2.169   1.266   3.797  1.3514  0.9415  0.0923
 3916SOL     OW11807   2.483   1.211   0.262 -0.2755  0.8655  0.3548
 3916SOL    HW111808   2.478   1.306   0.261  0.5256  0.9359 -1.9753
 3916SOL    HW211809   2.466   1.184   0.172  0.1075 -1.1781  0.8294
 3917SOL     OW11810   5.352   5.068   2.066 -0.4594  0.4393  0.2888
 3917SOL    HW111811   5.263   5.050   2.095 -0.0516 -1.1763  0.6015
 3917SOL    HW211812   5.395   5.106   2.143 -0.9303  1.4966  0.0520
 3918SOL     OW11813   2.971   1.927   3.977 -0.2651 -0.7765  0.3205
 3918SOL    HW111814   3.013   1.843   3.994  1.4635  0.1007  0.6782
 3918SOL    HW211815   3.044   1.987   3.960 -1.3615  0.8939  1.2121
 3919SOL     OW11816   1.370   1.084   3.659  0.1622 -0.0900 -1.2863
 3919SOL    HW111817   1.396   1.168   3.696  0.5064 -0.7995  0.1562
 3919SOL    HW211818   1.433   1.021   3.695 -2.3280 -1.5778  0.8464
 3920SOL     OW11819   2.478   3.754   3.122  0.3337  0.3422 -0.0798
 3920SOL    HW111820   2.436   3.731   3.039  1.2498  0.8666 -0.7132
 3920SOL    HW211821   2.430   3.832   3.152 -0.2376 -0.0659  0.0733
 3921SOL     OW11822   4.450   1.931   3.205 -0.3825 -0.2751 -0.6192
 3921SOL    HW111823   4.504   1.953   3.130  1.4378 -1.1038  0.3829
 3921SOL    HW211824   4.462   2.005   3.266  0.1068 -0.7285 -0.1565
 3922SOL     OW11825   3.597   0.553   2.542  0.4022 -0.5958  0.1505
 3922SOL    HW111826   3.581   0.462   2.514 -0.9718 -0.2283 -0.3310
 3922SOL    HW211827   3.627   0.597   2.462 -1.5991 -0.0083 -0.3226
 3923SOL     OW11828   5.073   3.671   3.237 -0.3136  0.8073  0.1942
 3923SOL    HW111829   5.132   3.663   3.163  0.5161 -0.1688  0.9377
 3923SOL    HW211830   5.099   3.752   3.280  1.1233 -0.0573  1.0298
 3924SOL     OW11831   0.620   4.776   1.726 -0.3920  0.2420  0.2056
 3924SOL    HW111832   0.594   4.868   1.728  0.0218  0.3486  1.7574
 3924SOL    HW211833   0.542   4.729   1.756 -1.1648 -0.1073 -2.1327
 3925SOL     OW11834   2.110   3.813   3.594 -0.3380  0.3552 -0.0448
 3925SOL    HW111835   2.141   3.759   3.521 -2.9818 -0.4728 -0.6620
 3925SOL    HW211836   2.108   3.752   3.668 -0.5960  0.3690 -0.0408
 3926SOL     OW11837   0.870   0.336   3.662  0.5108  0.0485  0.3850
 3926SOL    HW111838   0.812   0.394   3.613  0.7781 -0.6814 -0.8176
 3926SOL    HW211839   0.864   0.368   3.752  0.5003  1.8223 -0.1977
 3927SOL     OW11840   1.700   0.207   3.311  0.1910  0.3186 -0.0947
 3927SOL    HW111841   1.705   0.194   3.216  1.1499  0.5337 -0.0919
 3927SOL    HW211842   1.672   0.122   3.346 -1.3278  0.5729 -0.6475
 3928SOL     OW11843   2.632   1.070   1.908 -0.4295 -0.0727 -0.2462
 3928SOL    HW111844   2.552   1.017   1.906 -0.1546 -0.5223  0.3757
 3928SOL    HW211845   2.703   1.007   1.900 -0.1049  0.2237  0.2424
 3929SOL     OW11846   3.691   1.235   1.269 -0.3942  0.3018 -0.5295
 3929SOL    HW111847   3.596   1.243   1.260 -0.2514  0.8029 -1.8329
 3929SOL    HW211848   3.703   1.168   1.336 -1.6612  0.4652 -0.1087
 3930SOL     OW11849   1.935   1.429   3.106  0.3488 -0.3513  0.5918
 3930SOL    HW111850   1.913   1.357   3.164 -1.6623 -1.9120 -1.8992
 3930SOL    HW211851   1.862   1.491   3.115 -0.0226 -0.6444 -0.2728
 3931SOL     OW11852   1.301   3.244   0.489 -0.0594  0.0842 -0.4114
 3931SOL    HW111853   1.219   3.289   0.469 -0.0248 -0.6149 -2.2936
 3931SOL    HW211854   1.360   3.269   0.418  0.3465 -1.9285 -0.8307
 3932SOL     OW11855   3.898   0.624   2.142  0.3714  0.2452  0.0236
 3932SOL    HW111856   3.954   0.609   2.218  0.1208 -0.3223  0.1003
 3932SOL    HW211857   3.927   0.560   2.077 -0.4244 -0.3109  0.1980
 3933SOL     OW11858   0.183   3.068   1.194 -0.0736 -0.0895  0.6457
 3933SOL    HW111859   0.271   3.073   1.232  0.4845 -0.8002 -0.5134
 3933SOL    HW211860   0.140   3.000   1.246  0.9701 -1.6792 -0.4779
 3934SOL     OW11861   2.067   0.175   4.271  0.5601 -0.1082 -0.6547
 3934SOL    HW111862   2.075   0.251   4.328 -1.1913 -1.6450  1.8028
 3934SOL    HW211863   1.973   0.166   4.255  0.9207 -0.3706 -3.0027
 3935SOL     OW11864   2.442   0.869   1.826 -0.0925  0.5546 -0.0550
 3935SOL    HW111865   2.418   0.780   1.802 -0.4311  0.0938  1.8325
 3935SOL    HW211866   2.462   0.912   1.743  3.2193 -2.1370 -0.8827
 3936SOL     OW11867   2.948   2.370   1.409 -0.1946  0.1867 -0.4142
 3936SOL    HW111868   2.866   2.401   1.446 -0.0645  0.7602 -0.6005
 3936SOL    HW211869   2.970   2.293   1.461 -1.0482 -0.2040 -0.6225
 3937SOL     OW11870   0.315   4.140   4.102 -0.0561 -0.2603 -0.1446
 3937SOL    HW111871   0.349   4.216   4.150 -1.1823  0.3708 -0.2905
 3937SOL    HW211872   0.236   4.173   4.059 -0.7826 -1.6184  0.0934
 3938SOL     OW11873   1.974   3.967   2.539 -0.0935 -0.3139  0.0819
 3938SOL    HW111874   1.918   4.032   2.496  0.9469  1.1715  0.9007
 3938SOL    HW211875   2.048   3.956   2.481  1.9762  2.6768  1.8984
 3939SOL     OW11876   1.949   4.761   0.692 -0.3758  0.2699 -0.1084
 3939SOL    HW111877   2.012   4.709   0.643 -0.2247  1.6101 -1.4192
 3939SOL    HW211878   1.906   4.816   0.626 -2.2550  0.0677  0.8805
 3940SOL     OW11879   0.957   0.996   3.885  0.3402  0.0682 -0.0118
 3940SOL    HW111880   0.894   1.056   3.927 -0.0058 -1.3482  1.5926
 3940SOL    HW211881   1.011   1.054   3.831 -2.0617  1.4011 -1.1796
 3941SOL     OW11882   4.017   2.757   3.462 -0.2458 -0.3487  0.0035
 3941SOL    HW111883   3.987   2.689   3.402 -0.8020 -0.0297 -0.0808
 3941SOL    HW211884   4.007   2.839   3.413 -1.3295 -0.0185  0.7640
 3942SOL     OW11885   3.774   0.683   1.318  0.4794 -0.2520  0.1605
 3942SOL    HW111886   3.753   0.767   1.278  0.4853  0.4385  1.5585
 3942SOL    HW211887   3.797   0.704   1.409 -1.9111 -2.0143  1.2717
 3943SOL     OW11888   2.239   1.046   0.380 -0.2785  0.1676 -0.5054
 3943SOL    HW111889   2.179   1.032   0.454 -1.0541 -0.3050 -1.2043
 3943SOL    HW211890   2.204   1.123   0.335  0.4629  0.7327 -0.1236
 3944SOL     OW11891   4.430   3.183   3.280  0.6063  0.2360  0.4158
 3944SOL    HW111892   4.481   3.246   3.331  0.5886  0.4143  0.2189
 3944SOL    HW211893   4.394   3.235   3.208  1.3373 -0.1856 -0.2691
 3945SOL     OW11894   2.953   0.107   3.593  0.3930  0.7784 -0.1957
 3945SOL    HW111895   2.991   0.102   3.505  0.7984  0.2614  0.0032
 3945SOL    HW211896   2.958   0.200   3.615  0.2100  0.9275 -0.7500
 3946SOL     OW11897   4.972   2.735   0.613 -0.9612 -0.7077 -0.3539
 3946SOL    HW111898   4.975   2.828   0.635  0.5648 -0.8873  0.3162
 3946SOL    HW211899   5.064   2.708   0.609 -1.3473 -2.6836  1.7958
 3947SOL     OW11900   1.815   4.357   1.740 -0.3739 -0.0865  0.6869
 3947SOL    HW111901   1.801   4.438   1.692  0.3269 -0.7294 -0.6588
 3947SOL    HW211902   1.892   4.318   1.699  2.1416  0.6893  4.1697
 3948SOL     OW11903   0.386   3.766   0.033 -0.3285  0.4497  0.1143
 3948SOL    HW111904   0.459   3.706   0.052 -0.5745 -0.2159 -0.9664
 3948SOL    HW211905   0.383   3.824   0.109  1.2067  0.3629  0.2739
 3949SOL     OW11906   2.290   2.257   3.582  0.0137  0.2565  0.1117
 3949SOL    HW111907   2.247   2.340   3.562 -0.9761 -0.3919 -0.5211
 3949SOL    HW211908   2.218   2.195   3.595  0.6236  0.0358  3.2286
 3950SOL     OW11909   3.205   0.650   1.783  0.5046 -0.5536  0.1351
 3950SOL    HW111910   3.232   0.565   1.748  1.2467 -0.3599  0.2357
 3950SOL    HW211911   3.286   0.696   1.801  0.1124  0.4452 -0.5653
 3951SOL     OW11912   2.622   4.674   3.339 -0.1114 -0.6111  0.6122
 3951SOL    HW111913   2.704   4.631   3.365  0.7431 -0.4961 -1.7065
 3951SOL    HW211914   2.614   4.747   3.400  1.0938 -1.0742  1.3825
 3952SOL     OW11915   1.647   2.937   0.844 -0.6420  0.5546  0.2266
 3952SOL    HW111916   1.579   2.931   0.777  0.4656  1.6171 -1.0490
 3952SOL    HW211917   1.654   2.848   0.879 -1.0705 -0.0856 -1.2372
 3953SOL     OW11918   1.110   4.910   2.287  0.1471  0.8657 -0.4163
 3953SOL    HW111919   1.142   4.980   2.230 -0.2280  0.4569 -1.1369
 3953SOL    HW211920   1.030   4.880   2.246  0.4443 -0.1765 -0.2648
 3954SOL     OW11921   3.002   1.098   1.726 -0.4536  0.5755  0.1781
 3954SOL    HW111922   3.064   1.028   1.704  0.5217  1.6685 -0.6402
 3954SOL    HW211923   2.994   1.094   1.822 -0.7395 -0.8961  0.1253
 3955SOL     OW11924   3.998   1.907   0.669  0.0197  0.1645 -0.5443
 3955SOL    HW111925   3.942   1.985   0.668 -0.3135 -0.0565 -2.3651
 3955SOL    HW211926   4.076   1.932   0.621  2.1561  0.8342  2.9478
 3956SOL     OW11927   4.681   2.944   1.523 -0.0665 -0.2226 -0.3129
 3956SOL    HW111928   4.656   3.027   1.562 -1.1214 -0.1911 -0.9940
 3956SOL    HW211929   4.762   2.919   1.566 -1.1906 -0.2124  1.9312
 3957SOL     OW11930   0.307   0.512   0.453 -0.2330 -0.2824  0.0026
 3957SOL    HW111931   0.251   0.436   0.463 -0.7953  0.1402  0.1332
 3957SOL    HW211932   0.389   0.487   0.496 -0.9914 -0.2162  1.5710
 3958SOL     OW11933   3.218   1.627   2.027  0.1699  0.3410  0.2869
 3958SOL    HW111934   3.128   1.660   2.021 -0.2625 -0.5977  1.2742
 3958SOL    HW211935   3.269   1.702   2.058 -0.5630  0.4615  1.2552
 3959SOL     OW11936   5.240   1.304   3.857 -0.0908 -0.0256  0.5547
 3959SOL    HW111937   5.192   1.387   3.858  0.1523  0.1245  0.1527
 3959SOL    HW211938   5.222   1.265   3.942  0.2188  0.6952  0.9624
 3960SOL     OW11939   2.289   4.906   1.234 -0.3073 -0.0415  0.0060
 3960SOL    HW111940   2.320   4.820   1.205 -1.3219 -0.9746  1.5716
 3960SOL    HW211941   2.271   4.953   1.152  3.3676 -0.0501 -0.9623
 3961SOL     OW11942   3.047   2.843   4.141 -0.1836  0.1533 -0.0974
 3961SOL    HW111943   3.006   2.874   4.060  0.0362 -1.3584 -0.8147
 3961SOL    HW211944   3.079   2.923   4.183 -1.7657  1.1425 -0.6654
 3962SOL     OW11945   2.543   2.808   2.724  0.4394  0.0440  0.3059
 3962SOL    HW111946   2.626   2.797   2.679 -0.0166 -1.3773 -0.2542
 3962SOL    HW211947   2.566   2.817   2.817  1.2723  1.1143  0.0129
 3963SOL     OW11948   4.506   0.196   0.250 -0.4589 -0.4716 -0.0110
 3963SOL    HW111949   4.482   0.149   0.171 -0.0881 -0.7177  0.0193
 3963SOL    HW211950   4.587   0.242   0.227 -0.7620  0.0675 -0.0097
 3964SOL     OW11951   0.812   2.723   2.028 -0.4249 -0.2555  1.2827
 3964SOL    HW111952   0.745   2.789   2.010 -2.1804 -1.5606  2.7193
 3964SOL    HW211953   0.777   2.642   1.993  1.3105 -0.6497  0.3276
 3965SOL     OW11954   4.992   3.758   2.344 -0.1502 -0.6194  0.1538
 3965SOL    HW111955   5.034   3.703   2.278  1.3486 -0.5852  1.0396
 3965SOL    HW211956   4.998   3.708   2.425 -2.6650 -1.0050  0.1796
 3966SOL     OW11957   0.867   2.171   4.005 -0.2391  0.0245 -0.4945
 3966SOL    HW111958   0.777   2.145   3.984  0.6498 -2.0740 -1.9659
 3966SOL    HW211959   0.901   2.207   3.923 -0.4509  3.3529  0.6992
 3967SOL     OW11960   3.695   1.790   2.076 -0.3401 -0.1100  0.1990
 3967SOL    HW111961   3.641   1.743   2.013  0.4941 -0.6274 -0.1475
 3967SOL    HW211962   3.778   1.743   2.077  0.7835  1.7144 -0.6735
 3968SOL     OW11963   0.261   3.154   0.778  0.0207 -0.5707 -0.1355
 3968SOL    HW111964   0.288   3.209   0.851 -0.3865  1.3773 -1.3738
 3968SOL    HW211965   0.343   3.132   0.733  0.1345 -0.3471 -0.0405
 3969SOL     OW11966   3.490   1.506   1.348 -0.3935  0.5590  0.0609
 3969SOL    HW111967   3.442   1.436   1.303  1.6107 -0.2645 -0.9243
 3969SOL    HW211968   3.482   1.582   1.290  1.1989 -0.1765 -1.1941
 3970SOL     OW11969   4.761   1.698   3.205 -0.3081 -0.0155 -0.4029
 3970SOL    HW111970   4.724   1.766   3.149 -2.2834 -1.5112 -1.0307
 3970SOL    HW211971   4.723   1.715   3.291  1.3095  1.1928  0.1407
 3971SOL     OW11972   5.375   2.763   3.079 -0.1829  0.6581  0.8195
 3971SOL    HW111973   5.420   2.818   3.016 -0.0871  0.0154  0.3089
 3971SOL    HW211974   5.373   2.676   3.038 -1.9277  0.6789  0.7928
 3972SOL     OW11975   0.336   1.328   4.424 -0.2424  0.3256 -0.4497
 3972SOL    HW111976   0.290   1.381   4.359 -1.0668 -1.0508 -1.0292
 3972SOL    HW211977   0.375   1.257   4.373 -1.0703 -0.8963  0.5650
 3973SOL     OW11978   1.903   1.681   3.397  0.1310  0.2726 -0.3769
 3973SOL    HW111979   1.989   1.667   3.358  0.3089  2.9982 -1.1404
 3973SOL    HW211980   1.851   1.721   3.327 -1.0572  0.7355  0.7325
 3974SOL     OW11981   4.304   3.380   4.318  0.1125 -0.3199 -0.3756
 3974SOL    HW111982   4.291   3.439   4.393 -2.9578  1.0482 -1.7862
 3974SOL    HW211983   4.343   3.436   4.251 -0.5249 -0.5405 -0.9383
 3975SOL     OW11984   3.207   4.753   1.279  0.2541  0.5982  0.0967
 3975SOL    HW111985   3.231   4.810   1.206  1.1474 -0.9996 -0.9135
 3975SOL    HW211986   3.126   4.710   1.250  0.1275  0.6112  0.4274
 3976SOL     OW11987   2.743   1.829   2.468  0.1596 -0.1311 -0.6364
 3976SOL    HW111988   2.676   1.857   2.530  2.1849  1.5290  0.9275
 3976SOL    HW211989   2.803   1.776   2.519  1.7625  1.0935 -1.1665
 3977SOL     OW11990   1.736   1.345   2.745 -0.2447  0.4130 -0.3770
 3977SOL    HW111991   1.651   1.382   2.721 -0.8078 -0.2553  0.5039
 3977SOL    HW211992   1.795   1.419   2.747 -0.9240  0.9661 -0.5327
 3978SOL     OW11993   1.073   4.390   0.036  0.4579 -0.2154 -0.3193
 3978SOL    HW111994   0.982   4.411   0.017 -0.2760 -3.0917 -0.5690
 3978SOL    HW211995   1.101   4.335  -0.037  1.8099 -0.7681  0.5606
 3979SOL     OW11996   4.340   2.909   2.845  0.1429  0.0776  0.6081
 3979SOL    HW111997   4.344   2.814   2.848  1.3029  0.0374 -0.9899
 3979SOL    HW211998   4.280   2.933   2.916 -1.5813 -1.9014 -0.0906
 3980SOL     OW11999   2.137   4.649   0.439  0.5591  0.5439  0.3394
 3980SOL    HW112000   2.225   4.614   0.421  0.5090  0.0156  1.0716
 3980SOL    HW212001   2.079   4.574   0.427  0.0291  1.1825 -1.4197
 3981SOL     OW12002   0.760   0.506   4.459  0.1479 -0.0924  0.5698
 3981SOL    HW112003   0.834   0.531   4.515  1.4418 -0.8792 -0.7018
 3981SOL    HW212004   0.746   0.581   4.403 -0.3875  0.2591  1.1621
 3982SOL     OW12005   1.358   4.114   3.093  0.0097 -0.3598  0.1525
 3982SOL    HW112006   1.355   4.186   3.155  0.5917 -0.7315  0.6159
 3982SOL    HW212007   1.328   4.038   3.142 -1.5004 -0.2924 -0.5786
 3983SOL     OW12008   5.220   3.949   3.083 -0.3660 -0.0165  0.6058
 3983SOL    HW112009   5.242   4.039   3.105  0.9844  0.0104 -0.6895
 3983SOL    HW212010   5.273   3.896   3.143 -0.9575  0.0375  1.1857
 3984SOL     OW12011   5.131   5.034   0.782  0.1671  0.3804 -0.1899
 3984SOL    HW112012   5.184   5.011   0.706 -0.6819 -0.5280 -0.5266
 3984SOL    HW212013   5.068   5.098   0.749  0.8776  1.2806  0.1564
 3985SOL     OW12014   3.151   0.115   1.953 -0.5851 -0.5597  0.3478
 3985SOL    HW112015   3.216   0.125   1.883 -1.2338  0.8154 -0.0933
 3985SOL    HW212016   3.082   0.061   1.916  0.4550 -2.3711  0.9507
 3986SOL     OW12017   1.458   3.690   3.797  0.1770  0.0232 -0.7458
 3986SOL    HW112018   1.511   3.642   3.733  1.3955  0.1343  0.1334
 3986SOL    HW212019   1.485   3.654   3.882  1.9206  2.8746  0.0506
 3987SOL     OW12020   1.737   0.810   3.685 -0.0721 -0.8984 -0.0266
 3987SOL    HW112021   1.727   0.718   3.708  1.1163 -1.1420 -0.3970
 3987SOL    HW212022   1.741   0.810   3.589 -0.8750 -0.3588 -0.0683
 3988SOL     OW12023   3.454   2.082   0.272  0.0560  0.3527 -0.2383
 3988SOL    HW112024   3.481   1.990   0.266  1.6571  0.8099 -0.5875
 3988SOL    HW212025   3.361   2.081   0.251 -0.4760 -1.4315  1.8498
 3989SOL     OW12026   3.519   0.199   2.245  0.1637 -0.0275  0.0010
 3989SOL    HW112027   3.443   0.163   2.200 -0.1528  1.4778 -0.7320
 3989SOL    HW212028   3.545   0.275   2.192 -0.2316  1.8313  2.2852
 3990SOL     OW12029   5.209   0.984   1.017  0.0498  0.5083  0.0834
 3990SOL    HW112030   5.202   0.904   0.964 -0.2597 -0.2299  1.2135
 3990SOL    HW212031   5.183   1.054   0.957 -0.4484 -0.3254 -0.7059
 3991SOL     OW12032   2.468   4.997   1.646 -0.2216  0.3849  0.0024
 3991SOL    HW112033   2.436   4.961   1.729  1.3204 -0.8499  0.1010
 3991SOL    HW212034   2.541   5.053   1.672 -0.7260  1.2593 -0.4133
 3992SOL     OW12035   3.477   2.372   0.797 -0.1774 -0.0805  0.2531
 3992SOL    HW112036   3.545   2.424   0.840 -0.1555 -0.7153  1.0130
 3992SOL    HW212037   3.459   2.301   0.859 -1.8199  0.3114  0.2635
 3993SOL     OW12038   3.971   2.968   3.733 -0.0830 -0.0521  0.0103
 3993SOL    HW112039   3.879   2.974   3.705 -0.2901  0.2217  0.7226
 3993SOL    HW212040   4.017   3.029   3.676 -0.2071 -0.7628 -0.8719
 3994SOL     OW12041   1.352   1.867   2.207  0.4058  0.0568  0.3287
 3994SOL    HW112042   1.388   1.922   2.138 -0.4591 -0.9372 -0.9512
 3994SOL    HW212043   1.269   1.909   2.230 -0.8366 -1.2693 -1.4790
 3995SOL     OW12044   2.329   2.923   0.135 -0.2410  0.2564  0.2732
 3995SOL    HW112045   2.270   2.850   0.114  0.1596 -0.0273  0.1211
 3995SOL    HW212046   2.275   2.983   0.186 -0.5185 -0.2507  0.5884
 3996SOL     OW12047   3.873   2.061   2.191  0.2500 -0.1003  0.0142
 3996SOL    HW112048   3.940   1.993   2.191  0.0310 -0.3313  0.7368
 3996SOL    HW212049   3.792   2.015   2.171  0.1314 -0.0238  0.3071
 3997SOL     OW12050   0.229   3.770   0.825  0.0469  0.3554 -0.1470
 3997SOL    HW112051   0.230   3.676   0.843 -0.8998  0.5905  1.2684
 3997SOL    HW212052   0.172   3.779   0.749  0.1997 -0.2207 -0.3367
 3998SOL     OW12053   4.596   1.107   0.997 -0.5693  0.0872 -0.2845
 3998SOL    HW112054   4.599   1.068   1.084  0.3653  1.1533  0.1986
 3998SOL    HW212055   4.564   1.037   0.940  1.1517 -1.4321  0.5097
 3999SOL     OW12056   4.980   1.821   3.535 -0.3972 -0.2714  0.0187
 3999SOL    HW112057   4.948   1.737   3.502 -0.8625  0.1058 -0.5015
 3999SOL    HW212058   4.963   1.883   3.464  1.7946 -0.0993 -0.4200
 4000SOL     OW12059   1.788   0.693   4.302  0.4441 -0.1929 -0.0677
 4000SOL    HW112060   1.879   0.710   4.326 -0.0726  0.9224  1.2626
 4000SOL    HW212061   1.755   0.778   4.271 -0.8079  0.0815  1.8537
 4001SOL     OW12062   2.291   1.680   1.333 -0.5947 -0.0258  0.1309
 4001SOL    HW112063   2.330   1.767   1.327 -0.0314 -0.2008  1.0179
 4001SOL    HW212064   2.213   1.693   1.387  0.1556 -0.2636  1.3048
 4002SOL     OW12065   4.968   3.877   3.846 -0.2446  0.1788 -0.3738
 4002SOL    HW112066   4.909   3.804   3.826 -0.2642 -0.2021  0.9993
 4002SOL    HW212067   4.957   3.892   3.940  1.0791  0.7879 -0.2988
 4003SOL     OW12068   2.679   2.919   4.097 -0.3657 -0.0479  0.0056
 4003SOL    HW112069   2.682   2.880   4.010  0.9746  0.8843 -0.4001
 4003SOL    HW212070   2.699   2.847   4.157  0.8132 -0.2638 -0.6264
 4004SOL     OW12071   1.694   4.142   4.404  0.5742  0.0107 -0.7437
 4004SOL    HW112072   1.612   4.170   4.364  0.2399 -0.6591 -0.5418
 4004SOL    HW212073   1.673   4.059   4.447  0.0500  2.1220  3.5667
 4005SOL     OW12074   5.194   1.373   2.425 -0.1560  0.2716 -0.1156
 4005SOL    HW112075   5.134   1.315   2.473 -0.2766  1.6550  1.4876
 4005SOL    HW212076   5.190   1.342   2.335  0.2887 -2.6204  0.7657
 4006SOL     OW12077   4.041   3.470   0.062 -0.4507  0.5071  0.0473
 4006SOL    HW112078   4.098   3.499  -0.008 -1.1820  1.0327 -0.3488
 4006SOL    HW212079   3.955   3.462   0.021 -1.6325  3.9106  1.4889
 4007SOL     OW12080   5.095   2.577   2.697 -0.0834 -0.0176  0.8429
 4007SOL    HW112081   5.118   2.662   2.733 -0.8916  1.0438 -1.0379
 4007SOL    HW212082   4.999   2.577   2.695 -0.1307  0.7210 -2.7855
 4008SOL     OW12083   1.477   4.186   0.239  0.3827 -0.5375  0.0337
 4008SOL    HW112084   1.466   4.092   0.249  1.1433 -0.5576  0.6740
 4008SOL    HW212085   1.567   4.204   0.264  0.1288  0.4213  0.3225
 4009SOL     OW12086   4.191   2.703   1.565  0.3845  0.2072  0.2816
 4009SOL    HW112087   4.198   2.623   1.513 -0.8560 -1.4103  2.4392
 4009SOL    HW212088   4.137   2.761   1.512 -0.7588 -1.3206 -0.3311
 4010SOL     OW12089   3.189   1.368   3.850 -0.0025 -0.0033  0.1173
 4010SOL    HW112090   3.104   1.333   3.824  0.1782 -0.4202  0.0907
 4010SOL    HW212091   3.220   1.309   3.919 -0.0392  0.5324  0.6087
 4011SOL     OW12092   4.539   4.721   2.861 -0.1909 -0.3997 -0.3073
 4011SOL    HW112093   4.544   4.816   2.873 -1.6180 -0.3881  0.4409
 4011SOL    HW212094   4.630   4.691   2.863  0.2340  0.8734  0.0910
 4012SOL     OW12095   3.285   4.099   2.542  0.5653 -0.2946  0.1924
 4012SOL    HW112096   3.353   4.077   2.606  0.7371  2.8090  1.2205
 4012SOL    HW212097   3.329   4.151   2.476 -0.1311 -1.3742 -1.1776
 4013SOL     OW12098   4.131   4.624   0.404 -0.2789  0.1694  0.3731
 4013SOL    HW112099   4.053   4.679   0.411  0.2414  1.1695 -1.1335
 4013SOL    HW212100   4.101   4.544   0.362 -0.5244  0.4798 -0.0426
 4014SOL     OW12101   3.193   0.099   2.539 -0.6714  0.5134  0.0419
 4014SOL    HW112102   3.163   0.014   2.571  2.6416 -0.4588  0.9792
 4014SOL    HW212103   3.142   0.114   2.459 -0.7754 -2.7820 -0.6750
 4015SOL     OW12104   1.827   4.903   0.497 -0.1787  0.1188  0.2616
 4015SOL    HW112105   1.846   4.996   0.485  0.0824 -0.1192 -1.4904
 4015SOL    HW212106   1.731   4.898   0.501 -0.2132  0.4197 -0.1336
 4016SOL     OW12107   5.278   2.322   3.706  0.2083  0.0924 -0.1681
 4016SOL    HW112108   5.206   2.385   3.704  0.9616  1.1400  2.3104
 4016SOL    HW212109   5.266   2.273   3.787  2.1967  0.2049  0.2440
 4017SOL     OW12110   2.192   1.554   3.341  0.0819 -0.4051  0.2491
 4017SOL    HW112111   2.284   1.528   3.335  0.7042  1.8005 -0.5339
 4017SOL    HW212112   2.192   1.633   3.395 -1.2757 -0.0117 -0.2854
 4018SOL     OW12113   1.675   1.759   2.015  1.0191 -0.6039 -0.3965
 4018SOL    HW112114   1.691   1.843   2.058 -0.0052 -0.7540  0.3172
 4018SOL    HW212115   1.747   1.750   1.952  0.3585  1.4648 -1.5276
 4019SOL     OW12116   3.149   1.846   1.068  0.0172 -0.4168 -0.4718
 4019SOL    HW112117   3.174   1.937   1.079 -0.0055 -0.6583  1.9839
 4019SOL    HW212118   3.061   1.850   1.030 -0.5106  0.6450  0.7820
 4020SOL     OW12119   3.781   1.488   1.766 -0.1441  0.0779 -0.2729
 4020SOL    HW112120   3.776   1.505   1.672  1.2090  0.2068 -0.3299
 4020SOL    HW212121   3.872   1.502   1.789 -0.0135 -1.9001  0.6878
 4021SOL     OW12122   0.673   1.263   0.777 -0.2043 -0.2086  0.4275
 4021SOL    HW112123   0.611   1.310   0.833  0.9071  1.3775  0.3901
 4021SOL    HW212124   0.735   1.330   0.748  1.8522 -1.8017  0.8969
 4022SOL     OW12125   4.957   2.667   0.130  0.4421 -0.5020 -0.5191
 4022SOL    HW112126   5.023   2.731   0.102  1.4002 -1.0826  0.3397
 4022SOL    HW212127   4.996   2.582   0.111  0.0942 -0.8651  0.3283
 4023SOL     OW12128   5.303   1.441   1.371  0.0204  0.4927  0.5884
 4023SOL    HW112129   5.360   1.460   1.446 -0.1320  2.5570  0.2327
 4023SOL    HW212130   5.215   1.459   1.404 -0.4332 -1.9971  0.9214
 4024SOL     OW12131   2.930   0.872   1.115  0.5525 -0.0593  0.0012
 4024SOL    HW112132   2.919   0.947   1.174  2.5240  0.9080 -0.8134
 4024SOL    HW212133   3.017   0.838   1.134 -0.1666 -1.9928  0.1212
 4025SOL     OW12134   2.723   4.483   1.767  0.0574  0.2920  0.8008
 4025SOL    HW112135   2.814   4.460   1.752  0.2452 -0.2505  2.5094
 4025SOL    HW212136   2.719   4.578   1.753  0.7077  0.2021 -0.0167
 4026SOL     OW12137   2.799   0.655   0.054 -0.6777  0.3297  0.0825
 4026SOL    HW112138   2.840   0.640   0.140  0.2911  0.1710 -0.3997
 4026SOL    HW212139   2.705   0.661   0.074 -0.9332 -3.3986  0.7328
 4027SOL     OW12140   1.826   2.412   2.331  0.4397 -0.0124 -0.0502
 4027SOL    HW112141   1.831   2.507   2.338  2.1340 -0.1570  1.3911
 4027SOL    HW212142   1.734   2.394   2.310 -0.7783  1.7684  3.1102
 4028SOL     OW12143   5.341   4.519   1.488 -0.4129  0.6033 -0.4089
 4028SOL    HW112144   5.259   4.471   1.495  0.4352 -0.6803  1.4589
 4028SOL    HW212145   5.332   4.591   1.551 -0.1140  0.4732 -0.2166
 4029SOL     OW12146   1.899   4.315   1.150 -0.7693 -0.0787  0.2696
 4029SOL    HW112147   1.872   4.243   1.207 -1.8220  1.4991  1.8474
 4029SOL    HW212148   1.904   4.391   1.207  0.4576  1.1177 -1.3209
 4030SOL     OW12149   4.750   5.137   1.627  0.2770  0.0966 -0.4890
 4030SOL    HW112150   4.828   5.190   1.611  1.0675 -0.9594 -0.3095
 4030SOL    HW212151   4.739   5.086   1.546  0.1926 -0.2572 -0.2585
 4031SOL     OW12152   0.800   2.458   1.212 -0.0829 -0.0072 -0.6885
 4031SOL    HW112153   0.720   2.429   1.256  0.3616 -1.7595 -0.9676
 4031SOL    HW212154   0.867   2.396   1.240  1.1571  1.2852 -0.6471
 4032SOL     OW12155   4.580   1.449   3.949 -0.3203  0.0329 -0.1710
 4032SOL    HW112156   4.513   1.392   3.987 -0.0225 -0.3346 -0.1894
 4032SOL    HW212157   4.663   1.415   3.983 -0.2463  1.9251  1.7931
 4033SOL     OW12158   2.480   3.622   3.581  0.0812  0.0725  0.1848
 4033SOL    HW112159   2.574   3.618   3.595 -0.1559 -1.5136  1.5758
 4033SOL    HW212160   2.448   3.685   3.646  0.0776 -0.0828  0.3337
 4034SOL     OW12161   4.895   0.539   4.053  0.9292 -0.0028 -0.3194
 4034SOL    HW112162   4.842   0.587   4.116 -1.7067 -2.3814 -0.5350
 4034SOL    HW212163   4.909   0.453   4.093 -0.2216 -1.3464 -2.5925
 4035SOL     OW12164   4.567   2.893   0.584 -0.0336  0.1152 -0.3386
 4035SOL    HW112165   4.616   2.812   0.569 -1.4703 -0.7323 -0.7226
 4035SOL    HW212166   4.600   2.954   0.519 -0.9060 -1.1164 -2.0496
 4036SOL     OW12167   4.883   4.286   0.752 -0.4186 -0.6185  0.7560
 4036SOL    HW112168   4.936   4.348   0.802 -0.7305 -2.1437  3.1272
 4036SOL    HW212169   4.840   4.340   0.685  1.4088  1.2183  0.9715
 4037SOL     OW12170   0.182   0.942   0.751 -0.0783 -0.5546 -0.4819
 4037SOL    HW112171   0.254   0.986   0.705 -0.5420 -0.1629 -0.8382
 4037SOL    HW212172   0.172   0.859   0.705  0.1717 -0.6308 -0.4033
 4038SOL     OW12173   2.003   0.247   0.973  0.0189  0.3137  0.1778
 4038SOL    HW112174   2.055   0.192   1.032 -0.0293  0.5476  0.4427
 4038SOL    HW212175   1.938   0.188   0.936 -1.4926  0.6349  2.1699
 4039SOL     OW12176   3.079   4.603   1.488 -0.2367  0.4367 -0.7511
 4039SOL    HW112177   3.004   4.662   1.489 -0.2648  0.4006  0.1751
 4039SOL    HW212178   3.153   4.659   1.464 -0.4953  0.5433 -1.3146
 4040SOL     OW12179   4.915   4.541   3.729  0.2641 -0.1172 -0.2868
 4040SOL    HW112180   4.974   4.477   3.690  2.0904  0.9909  0.5004
 4040SOL    HW212181   4.973   4.599   3.779 -1.3962  1.6923 -0.3575
 4041SOL     OW12182   5.153   3.844   3.653 -0.3288 -0.4437  0.0425
 4041SOL    HW112183   5.120   3.874   3.738  1.5217  1.9177  0.0242
 4041SOL    HW212184   5.075   3.821   3.603 -2.0660  4.3126  0.1469
 4042SOL     OW12185   5.267   2.632   1.935  0.0358  0.1210 -0.7641
 4042SOL    HW112186   5.207   2.569   1.973  0.8064 -0.4630 -0.4914
 4042SOL    HW212187   5.212   2.707   1.911 -1.0839 -1.1017 -2.1962
 4043SOL     OW12188   4.342   3.621   3.525  0.3855 -0.3349  0.2391
 4043SOL    HW112189   4.247   3.624   3.535  0.2606 -1.0067 -0.6507
 4043SOL    HW212190   4.358   3.644   3.434  0.9519 -1.6747 -0.0285
 4044SOL     OW12191   4.828   2.393   4.363 -0.2778 -0.4731 -0.2480
 4044SOL    HW112192   4.800   2.466   4.420 -1.8533 -0.1290 -1.3727
 4044SOL    HW212193   4.767   2.322   4.384 -0.2004 -0.6954 -0.7645
 4045SOL     OW12194   5.117   4.334   1.752  0.0692  0.3550  0.1631
 4045SOL    HW112195   5.150   4.247   1.733  1.7634  0.9371  0.2458
 4045SOL    HW212196   5.107   4.375   1.666 -0.6247  0.1352  0.1302
 4046SOL     OW12197   4.106   2.994   4.332 -0.4907  0.3322 -1.1095
 4046SOL    HW112198   4.128   3.010   4.241 -1.8480  1.9370 -1.1943
 4046SOL    HW212199   4.162   3.055   4.381 -2.4685  2.3168 -1.1602
 4047SOL     OW12200   0.567   0.316   2.752  0.2669  0.4415 -0.5175
 4047SOL    HW112201   0.634   0.369   2.795 -0.7507 -0.0055  1.7925
 4047SOL    HW212202   0.486   0.366   2.762 -0.3599 -0.6377 -0.0084
 4048SOL     OW12203   3.682   0.955   3.015 -0.2558  0.1173  0.0658
 4048SOL    HW112204   3.693   1.022   3.083  0.5472 -0.5985  0.6603
 4048SOL    HW212205   3.682   0.872   3.063  0.2019 -0.3892 -0.7883
 4049SOL     OW12206   4.927   3.270   3.339  0.7023  0.3989  0.5088
 4049SOL    HW112207   4.978   3.291   3.260 -0.2551  2.7632  0.4701
 4049SOL    HW212208   4.923   3.351   3.388 -0.3453 -0.5630  2.1018
 4050SOL     OW12209   0.269   0.894   1.374  0.3341  0.3885  0.1197
 4050SOL    HW112210   0.242   0.946   1.298  1.8327  1.0674  0.0196
 4050SOL    HW212211   0.287   0.958   1.442  0.3114 -0.1390  0.6291
 4051SOL     OW12212   4.576   1.161   2.383 -0.6661 -0.4561 -0.0434
 4051SOL    HW112213   4.638   1.233   2.394  0.1191 -1.1807  0.4000
 4051SOL    HW212214   4.493   1.196   2.415 -0.3196  0.2902  0.0670
 4052SOL     OW12215   1.816   2.486   3.627 -0.3362 -0.1471  0.1902
 4052SOL    HW112216   1.869   2.556   3.667  0.0865  0.7071 -1.7407
 4052SOL    HW212217   1.828   2.498   3.533 -2.5964 -1.0337 -0.2780
 4053SOL     OW12218   5.165   0.214   2.416  0.7024  0.4715  0.1430
 4053SOL    HW112219   5.101   0.237   2.349  0.0822 -0.5736  0.3461
 4053SOL    HW212220   5.130   0.134   2.456  2.6070 -0.6656 -0.3586
 4054SOL     OW12221   2.243   2.971   0.817 -0.3536 -0.5234 -0.2292
 4054SOL    HW112222   2.168   3.028   0.834  0.1539  0.1223 -0.1361
 4054SOL    HW212223   2.270   2.991   0.728  0.0307 -0.3800 -0.0839
 4055SOL     OW12224   3.468   3.323   2.818 -0.3841 -0.4368 -0.2429
 4055SOL    HW112225   3.377   3.333   2.791 -0.6450  0.1447  0.8106
 4055SOL    HW212226   3.471   3.357   2.907  0.7742 -0.8685 -0.0975
 4056SOL     OW12227   1.378   2.423   0.832  0.0533 -0.0604  0.1277
 4056SOL    HW112228   1.443   2.473   0.783  0.2061 -1.6549 -1.3956
 4056SOL    HW212229   1.364   2.474   0.912  2.3572  0.8886  0.0053
 4057SOL     OW12230   3.044   3.569   0.932 -0.2446 -0.0629  0.2299
 4057SOL    HW112231   2.980   3.638   0.949 -0.8892 -0.4429 -0.5793
 4057SOL    HW212232   3.117   3.614   0.889 -0.1075  0.3158  0.8495
 4058SOL     OW12233   0.860   1.594   0.475  0.1512  1.1469 -0.5408
 4058SOL    HW112234   0.798   1.599   0.402 -0.4206  0.6424 -0.1045
 4058SOL    HW212235   0.942   1.628   0.440 -0.0728  0.7556 -1.4688
 4059SOL     OW12236   4.243   2.846   3.800  0.1846 -0.4383  0.2189
 4059SOL    HW112237   4.155   2.874   3.776  0.0849 -1.3837 -0.5792
 4059SOL    HW212238   4.288   2.832   3.717  0.6746 -1.2507  0.6031
 4060SOL     OW12239   2.121   4.375   3.429 -0.0583 -0.0330  0.1041
 4060SOL    HW112240   2.051   4.402   3.489  0.2429  0.0581  0.4175
 4060SOL    HW212241   2.086   4.393   3.342 -0.4006  0.0705  0.2598
 4061SOL     OW12242   0.344   3.778   4.270  0.4136  0.4766  0.2188
 4061SOL    HW112243   0.274   3.841   4.255 -0.3977 -0.3509  0.4212
 4061SOL    HW212244   0.409   3.797   4.202 -0.5077  0.5585 -0.6600
 4062SOL     OW12245   2.849   1.686   2.657 -0.3044 -0.5094 -0.1895
 4062SOL    HW112246   2.934   1.642   2.656  0.5529  1.0174  0.9785
 4062SOL    HW212247   2.843   1.724   2.745 -2.4551 -1.0280 -0.0447
 4063SOL     OW12248   0.845   4.171   3.730 -0.4891  0.9638 -0.2613
 4063SOL    HW112249   0.792   4.139   3.657 -1.0068 -1.1892  0.9531
 4063SOL    HW212250   0.786   4.169   3.805 -0.1563  3.7330  0.1859
 4064SOL     OW12251   4.009   3.148   1.110  0.0691  0.3050 -1.0743
 4064SOL    HW112252   3.929   3.125   1.157  0.4760  0.9607 -0.0438
 4064SOL    HW212253   3.977   3.190   1.029 -0.6231 -0.2878 -1.1182
 4065SOL     OW12254   2.593   2.849   3.800 -0.1561  0.0812  0.0317
 4065SOL    HW112255   2.583   2.760   3.832  0.7619  0.1486  0.5509
 4065SOL    HW212256   2.551   2.849   3.714  0.2196 -0.9706 -0.1649
 4066SOL     OW12257   2.433   4.244   4.438  0.0721 -0.5377 -0.0693
 4066SOL    HW112258   2.482   4.173   4.396  0.4268 -1.5612  1.9504
 4066SOL    HW212259   2.479   4.324   4.411  1.6827 -1.3217  0.2096
 4067SOL     OW12260   5.397   1.590   3.852 -0.6552  0.5621  0.4067
 4067SOL    HW112261   5.313   1.545   3.848 -0.2798 -0.1515  0.2938
 4067SOL    HW212262   5.377   1.681   3.833 -1.1451  0.0596 -1.8534
 4068SOL     OW12263   4.819   2.625   3.118  0.6710 -0.1756 -0.1061
 4068SOL    HW112264   4.899   2.672   3.139  0.7796 -0.4196  0.0326
 4068SOL    HW212265   4.758   2.647   3.188  0.8274 -0.4927  0.1332
 4069SOL     OW12266   3.203   4.845   0.484 -0.4914 -0.4590 -0.1024
 4069SOL    HW112267   3.128   4.785   0.483 -0.3040 -0.6880 -0.7394
 4069SOL    HW212268   3.271   4.799   0.435 -0.5443  0.5418 -1.1374
 4070SOL     OW12269   3.693   2.412   2.121 -0.2237 -0.5738  0.0033
 4070SOL    HW112270   3.611   2.413   2.170 -0.6465  0.0334 -0.6798
 4070SOL    HW212271   3.698   2.499   2.081  0.2035 -0.9677 -0.8473
 4071SOL     OW12272   1.912   2.221   2.163  0.3514 -0.7391  0.3691
 4071SOL    HW112273   1.897   2.302   2.211  0.7834  0.2647 -1.1318
 4071SOL    HW212274   1.994   2.187   2.199  0.0582 -0.6366  1.1532
 4072SOL     OW12275   2.955   5.008   4.072  0.4188  0.2709 -0.0821
 4072SOL    HW112276   2.923   5.079   4.017 -0.1636  0.3432  0.3490
 4072SOL    HW212277   3.049   5.004   4.053  0.6073  1.6589  0.4509
 4073SOL     OW12278   1.174   3.646   2.981  0.2062  0.0579 -0.5148
 4073SOL    HW112279   1.170   3.646   2.886 -0.4274 -0.9361 -0.5093
 4073SOL    HW212280   1.243   3.584   3.002  0.2905  0.2146 -0.3324
 4074SOL     OW12281   3.393   1.117   1.592 -0.2789  0.1524 -0.3554
 4074SOL    HW112282   3.300   1.137   1.577  0.2466  3.6211  0.1618
 4074SOL    HW212283   3.410   1.148   1.681  1.1665 -1.4277 -0.0374
 4075SOL     OW12284   4.064   3.762   0.646  0.1135 -0.4183  0.3064
 4075SOL    HW112285   3.989   3.788   0.593 -0.4202 -0.8217  0.8554
 4075SOL    HW212286   4.069   3.829   0.715 -1.0749 -1.5455  1.5402
 4076SOL     OW12287   5.018   1.857   2.110 -0.0121 -0.5207  0.1329
 4076SOL    HW112288   5.068   1.853   2.192 -0.1135  2.0393  0.4158
 4076SOL    HW212289   4.927   1.857   2.138 -0.0516 -0.0148  0.0218
 4077SOL     OW12290   4.159   1.946   3.764 -0.5907  0.4715  0.4332
 4077SOL    HW112291   4.206   1.921   3.685 -1.3054 -0.3320  0.2454
 4077SOL    HW212292   4.077   1.896   3.760 -0.1410 -0.4903  2.2579
 4078SOL     OW12293   4.236   5.106   0.944 -0.3201  0.1348 -0.1888
 4078SOL    HW112294   4.319   5.082   0.985 -0.8816  1.4690  1.8993
 4078SOL    HW212295   4.187   5.023   0.937  0.3529 -0.3386  0.5834
 4079SOL     OW12296   4.245   1.470   0.180  0.1233 -0.0473  1.0989
 4079SOL    HW112297   4.278   1.517   0.104 -0.2546 -1.0150  0.3058
 4079SOL    HW212298   4.258   1.530   0.253  0.8343  0.7615  0.3353
 4080SOL     OW12299   4.998   4.107   0.054  0.5250 -0.5929  0.3890
 4080SOL    HW112300   4.907   4.109   0.085  0.2294 -0.3284 -0.4778
 4080SOL    HW212301   5.000   4.171  -0.018  1.1777 -1.2620 -0.1963
 4081SOL     OW12302   1.197   0.081   1.355  0.0951  0.5091 -0.4216
 4081SOL    HW112303   1.123   0.020   1.350  0.0059  0.4756  0.8916
 4081SOL    HW212304   1.156   0.166   1.370  0.3139  0.5252  0.0916
 4082SOL     OW12305   1.964   2.614   3.410  0.1799  0.2752  0.2041
 4082SOL    HW112306   1.947   2.705   3.384  0.7316  0.3923  0.2461
 4082SOL    HW212307   1.934   2.562   3.336  0.1524  0.5072  0.0507
 4083SOL     OW12308   2.448   3.965   3.497  0.4883  0.7623 -0.1512
 4083SOL    HW112309   2.419   4.045   3.453  1.7067  1.0791 -0.4006
 4083SOL    HW212310   2.441   3.897   3.430  0.9494  0.9686 -0.4153
 4084SOL     OW12311   3.762   0.252   1.697  0.4872  0.0343 -0.0981
 4084SOL    HW112312   3.818   0.255   1.619  1.5121  0.4783  0.6271
 4084SOL    HW212313   3.741   0.159   1.709  0.3953 -0.0451 -0.8415
 4085SOL     OW12314   4.253   2.941   1.716  0.2979  0.3030  0.4433
 4085SOL    HW112315   4.249   2.918   1.624  0.8851  0.3074  0.4169
 4085SOL    HW212316   4.181   2.892   1.756 -1.6674  2.2715 -0.4318
 4086SOL     OW12317   2.560   0.374   0.247 -0.5935 -0.0478  0.3255
 4086SOL    HW112318   2.549   0.383   0.342  0.8007  1.8096  0.3730
 4086SOL    HW212319   2.544   0.462   0.213 -0.3380 -0.5175 -1.0964
 4087SOL     OW12320   3.310   2.353   1.959 -0.1837  0.6763 -0.5228
 4087SOL    HW112321   3.286   2.361   1.867 -1.1033  2.0893 -0.1884
 4087SOL    HW212322   3.316   2.444   1.990  0.2155  0.2223  0.7843
 4088SOL     OW12323   3.186   2.710   4.409 -0.0487  0.0248 -0.1240
 4088SOL    HW112324   3.269   2.724   4.363 -0.7101  1.0613 -1.0291
 4088SOL    HW212325   3.188   2.773   4.481  0.5274 -0.8902  0.6928
 4089SOL     OW12326   4.675   2.078   1.699  0.0180  0.1232 -0.2187
 4089SOL    HW112327   4.729   2.028   1.760 -0.0955 -0.6707 -0.7457
 4089SOL    HW212328   4.602   2.111   1.752 -0.4740 -1.1723 -0.0392
 4090SOL     OW12329   5.168   5.016   3.753 -0.0028  0.1901  0.2068
 4090SOL    HW112330   5.143   5.109   3.756 -1.1113 -0.0134 -1.2348
 4090SOL    HW212331   5.148   4.990   3.663 -1.4215 -1.8927  1.0609
 4091SOL     OW12332   4.485   4.108   0.802  0.1269 -0.4998 -0.3109
 4091SOL    HW112333   4.500   4.017   0.776  0.0409 -0.0540 -2.0674
 4091SOL    HW212334   4.470   4.154   0.719  0.2922  1.1393  0.5342
 4092SOL     OW12335   0.184   3.486   3.522 -0.3876  0.8025  0.4825
 4092SOL    HW112336   0.144   3.407   3.556 -0.5316  0.4214 -0.5277
 4092SOL    HW212337   0.275   3.482   3.551  0.1747 -0.8177 -1.2745
 4093SOL     OW12338   1.950   3.824   0.819  0.3493  0.2175 -0.0026
 4093SOL    HW112339   1.859   3.853   0.823 -0.1876 -1.3994  0.3691
 4093SOL    HW212340   1.978   3.818   0.910  0.0526 -1.4467  0.0247
 4094SOL     OW12341   0.637   1.554   0.857  0.0516  0.0041 -0.0727
 4094SOL    HW112342   0.693   1.544   0.934 -0.0503 -1.4108 -0.1628
 4094SOL    HW212343   0.548   1.551   0.892 -0.0068 -1.1633 -0.2719
 4095SOL     OW12344   1.889   0.107   2.359 -0.3147  0.6750  0.0647
 4095SOL    HW112345   1.953   0.036   2.356  0.0589  0.9524  1.0841
 4095SOL    HW212346   1.888   0.142   2.270  1.0704  0.7788  0.0651
 4096SOL     OW12347   4.292   0.160   0.690 -0.3036 -0.2049  0.1292
 4096SOL    HW112348   4.319   0.234   0.744  0.8447 -1.1274  0.8692
 4096SOL    HW212349   4.373   0.129   0.649 -1.1328  0.4086 -2.0778
 4097SOL     OW12350   0.436   3.335   0.260 -0.0375 -0.0013 -0.6566
 4097SOL    HW112351   0.513   3.308   0.209  1.3699  0.1606  1.2794
 4097SOL    HW212352   0.382   3.384   0.198  0.8235 -1.1119 -2.3742
 4098SOL     OW12353   0.128   0.308   0.176 -0.3209 -0.3031  0.3291
 4098SOL    HW112354   0.049   0.312   0.122 -0.1111  0.1587  0.0478
 4098SOL    HW212355   0.200   0.328   0.116 -0.0909  0.3219  0.7855
 4099SOL     OW12356   3.329   4.898   2.355 -0.5158  0.5013 -0.2797
 4099SOL    HW112357   3.342   4.932   2.266  0.1450  0.9761 -0.0111
 4099SOL    HW212358   3.392   4.946   2.408 -0.0413 -0.6545  0.2348
 4100SOL     OW12359   2.141   3.194   3.370 -0.1883 -0.0608  0.1712
 4100SOL    HW112360   2.200   3.154   3.306 -2.0895 -1.6004 -0.6901
 4100SOL    HW212361   2.154   3.288   3.359  3.3202 -0.2560  1.2181
 4101SOL     OW12362   1.799   2.670   1.310  1.5677  0.4773 -0.2133
 4101SOL    HW112363   1.826   2.610   1.380  1.2106  0.4908 -0.0603
 4101SOL    HW212364   1.832   2.629   1.230  1.7325  0.3156 -0.0673
 4102SOL     OW12365   1.397   4.502   3.678 -0.2043  0.6788  0.2790
 4102SOL    HW112366   1.491   4.493   3.667 -0.1756  2.0012 -0.7781
 4102SOL    HW212367   1.370   4.566   3.612 -1.7914  0.6068  0.7928
 4103SOL     OW12368   0.882   0.342   3.948 -0.3237 -0.1264 -0.3343
 4103SOL    HW112369   0.855   0.258   3.910  1.4047 -0.5476 -0.7086
 4103SOL    HW212370   0.902   0.321   4.039  1.4888 -0.4725 -0.7752
 4104SOL     OW12371   4.291   1.296   2.877  0.2531  0.7136 -0.2500
 4104SOL    HW112372   4.222   1.356   2.848 -1.0843 -0.8884 -0.5389
 4104SOL    HW212373   4.268   1.276   2.967 -0.1073 -0.4071 -0.5809
 4105SOL     OW12374   0.672   2.985   2.181  0.4263 -0.4395  0.5465
 4105SOL    HW112375   0.755   2.965   2.138  0.0271 -0.3563 -0.2878
 4105SOL    HW212376   0.605   2.954   2.120 -0.2244  2.6344 -0.4891
 4106SOL     OW12377   3.712   1.303   2.542 -0.6691  0.8444  0.0486
 4106SOL    HW112378   3.681   1.264   2.460  0.3804  2.1715 -1.0169
 4106SOL    HW212379   3.638   1.355   2.573 -1.2348 -0.0374  0.2209
 4107SOL     OW12380   4.214   4.403   2.553  0.3576 -0.2867  0.4359
 4107SOL    HW112381   4.265   4.476   2.586 -0.4053  0.4988 -0.0888
 4107SOL    HW212382   4.212   4.340   2.626  1.1653  0.1245  0.8234
 4108SOL     OW12383   3.746   1.350   0.099  0.1515  0.2235 -0.5224
 4108SOL    HW112384   3.673   1.334   0.039 -0.4434 -1.4233  0.5890
 4108SOL    HW212385   3.706   1.365   0.184  1.0811 -1.1032  0.1924
 4109SOL     OW12386   1.436   1.210   2.219 -0.5827  0.0628 -0.2080
 4109SOL    HW112387   1.513   1.230   2.272 -0.8842  3.1892 -0.7377
 4109SOL    HW212388   1.463   1.137   2.163  0.9977 -0.7793  1.5527
 4110SOL     OW12389   1.465   3.898   0.266  0.0154  0.5115  0.1398
 4110SOL    HW112390   1.381   3.854   0.269  0.1965  0.2104  1.3376
 4110SOL    HW212391   1.529   3.830   0.289  0.5364  0.8555 -0.2508
 4111SOL     OW12392   1.114   4.716   3.762 -0.0908 -0.2822  0.4388
 4111SOL    HW112393   1.201   4.730   3.724 -0.4075 -2.0229 -1.0773
 4111SOL    HW212394   1.071   4.801   3.753  1.2792  0.4881  0.8123
 4112SOL     OW12395   0.152   1.260   0.129  0.4652  0.0855  0.0440
 4112SOL    HW112396   0.095   1.268   0.206  0.2022 -1.0903  0.0013
 4112SOL    HW212397   0.173   1.166   0.126  4.2856  0.7092  1.3949
 4113SOL     OW12398   4.885   3.116   1.866 -0.1224  0.0301 -0.0646
 4113SOL    HW112399   4.870   3.044   1.805  0.7832 -0.6861  0.5409
 4113SOL    HW212400   4.950   3.171   1.824  0.3081 -0.3247  0.1268
 4114SOL     OW12401   3.255   4.371   0.843 -0.3037 -0.4496 -0.9907
 4114SOL    HW112402   3.276   4.447   0.789 -0.7284 -0.0333 -0.5854
 4114SOL    HW212403   3.278   4.398   0.932 -0.0890 -0.9426 -0.8944
 4115SOL     OW12404   5.404   0.556   0.207 -0.1075 -0.4273 -0.6748
 4115SOL    HW112405   5.410   0.510   0.123 -0.0383 -1.6458 -0.0318
 4115SOL    HW212406   5.402   0.486   0.272 -2.2672  0.4198  0.2545
 4116SOL     OW12407   1.730   1.483   1.330  0.1072  0.0768 -0.2649
 4116SOL    HW112408   1.732   1.545   1.403 -0.6285 -0.6661  0.4128
 4116SOL    HW212409   1.691   1.404   1.367 -0.6752 -0.1798 -1.5589
 4117SOL     OW12410   2.241   1.668   4.125 -0.1100 -0.4328 -1.2196
 4117SOL    HW112411   2.210   1.690   4.213  1.5880 -1.0058 -0.4139
 4117SOL    HW212412   2.173   1.700   4.066 -1.6210 -0.6393  0.3336
 4118SOL     OW12413   0.126   0.465   1.696  0.5056 -0.6258  0.0701
 4118SOL    HW112414   0.064   0.527   1.734  1.0404 -0.3239  0.4685
 4118SOL    HW212415   0.179   0.517   1.637  0.2882 -0.9145 -0.3819
 4119SOL     OW12416   4.750   3.189   2.854  0.3917 -0.7135  0.3279
 4119SOL    HW112417   4.717   3.143   2.777  1.4476 -0.7358 -0.1333
 4119SOL    HW212418   4.801   3.123   2.901  1.5476 -0.1584 -0.1046
 4120SOL     OW12419   4.539   3.503   2.030 -0.2313 -0.0922 -0.1474
 4120SOL    HW112420   4.564   3.529   2.119 -1.3910  2.2286 -0.4247
 4120SOL    HW212421   4.546   3.407   2.030  0.6089 -0.0950  2.1699
 4121SOL     OW12422   4.182   0.737   4.191  0.2061 -0.1275  0.5827
 4121SOL    HW112423   4.180   0.645   4.165  0.5121  0.0057  0.0738
 4121SOL    HW212424   4.114   0.778   4.138  1.0044  0.1933 -0.2132
 4122SOL     OW12425   3.253   2.836   0.191  0.5304 -0.2774 -0.4796
 4122SOL    HW112426   3.247   2.751   0.234  1.4537 -0.5822 -0.9087
 4122SOL    HW212427   3.347   2.847   0.175  0.2623  0.0259 -1.9787
 4123SOL     OW12428   0.312   1.009   2.731 -0.1764 -0.2026  0.2976
 4123SOL    HW112429   0.270   1.090   2.702 -0.4040 -0.7279 -0.8840
 4123SOL    HW212430   0.404   1.032   2.742  0.2661 -0.3387 -2.4840
 4124SOL     OW12431   0.019   4.052   0.671  0.1570 -0.0539  0.1377
 4124SOL    HW112432   0.004   4.061   0.577  1.7914  0.4347 -0.1087
 4124SOL    HW212433  -0.059   4.007   0.704 -0.8646  0.6046 -1.2851
 4125SOL     OW12434   3.430   1.512   0.502 -0.0340 -0.7863 -0.0858
 4125SOL    HW112435   3.465   1.547   0.584 -1.3543 -1.4684  0.8211
 4125SOL    HW212436   3.335   1.526   0.508 -0.0600  0.2426 -2.0567
 4126SOL     OW12437   4.945   3.382   2.760  0.3429 -0.0130  0.1185
 4126SOL    HW112438   4.902   3.310   2.807 -0.4922  1.1706  1.2162
 4126SOL    HW212439   4.914   3.461   2.803  1.5146  1.0126 -0.8466
 4127SOL     OW12440   2.073   1.921   2.679  0.0361  0.2901  0.4724
 4127SOL    HW112441   2.012   1.990   2.652  0.9322  1.5339  1.5019
 4127SOL    HW212442   2.035   1.886   2.760 -0.5381 -0.6147 -0.1720
 4128SOL     OW12443   1.145   3.079   3.896  0.2185 -0.3616  0.2955
 4128SOL    HW112444   1.153   3.140   3.969  0.7580 -0.0940  0.0182
 4128SOL    HW212445   1.214   3.014   3.910 -0.0112 -0.6100  0.3015
 4129SOL     OW12446   1.488   0.345   3.390  0.6206  0.6560 -0.5249
 4129SOL    HW112447   1.578   0.325   3.362  0.2460 -1.4289 -0.4081
 4129SOL    HW212448   1.433   0.286   3.339 -0.6150  1.2883  0.0295
 4130SOL     OW12449   1.790   3.978   2.321 -0.4425 -0.5636  0.4928
 4130SOL    HW112450   1.707   3.932   2.337 -2.1892  2.3197  0.3072
 4130SOL    HW212451   1.773   4.069   2.345  2.5801  0.2382  0.0598
   5.47148   5.15857   4.46744   0.00000   0.00000   1.82383   0.00000  -1.82383   2.57928
